   * xtb version 6.5.1 (579679a) compiled by 'ehlert@majestix' on 2022-07-11
          program call               : xtb cluster.xyz --gfn2 --ohess

   ID    Z sym.   atoms
    1    6 C      1-4
    2    1 H      5-12, 15, 16, 18, 19, 21, 22, 24, 25, 27, 28, 30, 31, 33,
                  34, 36, 37, 39, 40, 42, 43, 45, 46, 48, 49, 51, 52, 54, 55,
                  57, 58, 60, 61, 63, 64, 66, 67, 69, 70, 72, 73, 75, 76, 78,
                  79, 81, 82, 84, 85, 87, 88, 90, 91
    3    8 O      13, 17, 20, 23, 26, 29, 32, 35, 38, 41, 44, 47, 50, 53, 56,
                  59, 62, 65, 68, 71, 74, 77, 80, 83, 86, 89
    4    7 N      14

          :  Hamiltonian                  GFN2-xTB          :
 * total energy  :  -147.7425075 Eh     change       -0.8893153E-10 Eh
   *** GEOMETRY OPTIMIZATION CONVERGED AFTER 1 ITERATIONS ***

 final structure:
================
91
 xtb: 6.5.1 (579679a)
C           -0.55058579640000       -0.63509762770000        0.83421564360000
C           -1.62795160880000        0.09492713570000       -1.23712579870000
C           -0.81077557100000       -0.24894602020000       -2.47512524390000
C            0.82554138330000       -0.43557261480000        0.38451218860000
H           -0.63647143470000       -1.52992347430000        1.45339553790000
H           -2.68504342100000        0.15306870210000       -1.50163935430000
H           -1.24629037700000       -1.09632200840000       -2.99666297240000
H            1.44915088990000       -1.24593219410000        0.06320301010000
H           -0.89278790510000        0.24670156330000        1.38970264910000
H           -1.31242341100000        1.05644923460000       -0.82827797180000
H           -0.79614791490000        0.60225076310000       -3.14847327890000
H            0.20847177340000       -0.49528452880000       -2.19627245460000
O           -1.53797303390000       -0.89399089130000       -0.21565915640000
N            1.33953293860000        0.85577557630000        0.27655315140000
H            2.33637758670000        0.90539832170000        0.45104113490000
H            0.84232342390000        1.53003901200000        0.84769664040000
O            1.00630005140000       -4.31441583840000        0.47338508190000
H            0.61321465150000       -4.02369391450000        1.31127675330000
H            0.35672428250000       -4.07730196240000       -0.20906964120000
O           -3.58305470530000       -0.98233746640000        1.73286176060000
H           -2.96299141290000       -0.84896468610000        0.99696541730000
H           -3.17263026990000       -0.55388251490000        2.50372614000000
O           -0.77356812710000       -3.25388228920000       -1.38419330260000
H           -0.94661425610000       -2.39652793800000       -0.94537003520000
H           -1.66163331130000       -3.61261211940000       -1.51600483920000
O           -3.52507685020000       -3.47774085670000       -1.12709205060000
H           -4.22325182750000       -4.09675126090000       -1.34367788280000
H           -3.96792771420000       -2.60093764240000       -1.05313885980000
O           -3.07359428990000        3.43611053710000       -2.56497022070000
H           -2.99730206650000        3.69267472380000       -3.48381662780000
H           -2.19095028540000        3.54046110370000       -2.17383434970000
O            1.42651878740000       -2.65108955260000       -2.90058536180000
H            0.60901492680000       -2.86693954610000       -2.40585627190000
H            1.56627477840000       -3.36966533860000       -3.51821928550000
O           -0.47325683320000       -3.53973824630000        2.69652672930000
H           -0.44648028200000       -4.25966621190000        3.32821301990000
H           -1.37635922510000       -3.58091187430000        2.28076341690000
O            4.19763834490000        0.96041521160000        0.96384826500000
H            5.01826657070000        1.05398712710000        1.44833062900000
H            4.37243822890000        0.28344727710000        0.24477981940000
O            1.18104258400000        2.86139780650000        2.64137056170000
H            1.50251524470000        3.43515667090000        3.33809100440000
H            0.19741808190000        2.77636963270000        2.79996901520000
O           -2.53705918060000        2.94572688290000        0.54818441950000
H           -1.82324611820000        3.10193964580000       -0.10687740370000
H           -3.09034981590000        3.72824547710000        0.51459069720000
O           -4.95396499250000       -1.23241036210000       -0.70009000630000
H           -4.87682631340000       -1.19113288110000        0.26181598180000
H           -4.88788386310000       -0.30720624240000       -0.98811816060000
O            4.54927070340000       -0.72633764760000       -0.97505675360000
H            3.97965024490000       -0.49827771850000       -1.74020657470000
H            4.20174198210000       -1.59087742710000       -0.68646138510000
O           -2.87101990840000       -3.59083713980000        1.60356178920000
H           -3.25001499370000       -2.70936032320000        1.79373511350000
H           -2.96730972130000       -3.69197355000000        0.64210019200000
O            3.05129982330000       -2.91206140930000       -0.61017069170000
H            2.60757213430000       -2.85198410380000       -1.46979017350000
H            2.47274946260000       -3.48806865250000       -0.07387539630000
O            1.42481355820000        4.32272720230000        0.27617093060000
H            2.25222706950000        4.06188425750000       -0.15108753370000
H            1.39114491440000        3.83859526470000        1.11867938660000
O           -2.13177940060000        0.12776478060000        3.80882291990000
H           -1.27173715410000       -0.37182854880000        3.90758005910000
H           -2.54823210640000        0.10276450620000        4.67095022830000
O            3.65460753770000        2.98692673910000       -0.89596244320000
H            4.28667011530000        2.71694347570000       -1.59016389630000
H            3.84429115460000        2.39217778840000       -0.14982400810000
O            0.10146920660000       -1.18982479660000        4.08493488410000
H            0.03602622220000       -2.02292700740000        3.58912590620000
H            0.90386866830000       -0.73431845990000        3.77726612860000
O            1.46579349020000        1.95977138420000       -2.17696763400000
H            1.29335918620000        1.45271441160000       -1.34811054180000
H            2.22244157880000        2.52536673190000       -1.93279180170000
O            2.23819630720000        0.32708202550000        3.15648852860000
H            1.87545112400000        1.21960529630000        3.02716614460000
H            2.94859125630000        0.24231059350000        2.51154113700000
O           -0.59614976060000        3.50201471500000       -1.26909038540000
H            0.03921941300000        3.99466065480000       -0.70264162710000
H           -0.01243669070000        2.92970224970000       -1.80314489810000
O           -1.38160852540000        2.62004475370000        2.99908212230000
H           -1.84819527530000        2.74673996520000        2.15196472740000
H           -1.66724493220000        1.74867940400000        3.33380405120000
O           -4.46887236380000        1.51192731590000       -1.02542414040000
H           -4.20349965610000        2.12064686750000       -1.72863106550000
H           -3.94625466810000        1.78993838750000       -0.26087447980000
O            2.91685220260000       -0.15926226830000       -3.08589029120000
H            2.29929163170000        0.57969415130000       -2.91068141390000
H            2.38224231330000       -0.96148240390000       -3.15397668720000
O            5.16815931620000        1.59753648210000       -2.68688586130000
H            4.49814627950000        1.13567804260000       -3.20629542510000
H            5.58472481560000        0.91397524010000       -2.15233206800000

          :  Hamiltonian                  GFN2-xTB          :
         :: gradient norm              0.000357126332 Eh/a0 ::
         :: HOMO-LUMO gap              6.406285465089 eV    ::
         :: SCC energy              -148.749148985347 Eh    ::
         :: -> dispersion             -0.070876235231 Eh    ::
         :: repulsion energy           1.000437190811 Eh    ::

    * Orbital Energies and Occupations

         #    Occupation            Energy/Eh            Energy/eV
      -------------------------------------------------------------
         1        2.0000           -0.7012242             -19.0813
       ...           ...                  ...                  ...
       107        2.0000           -0.4335320             -11.7970
       108        2.0000           -0.4331812             -11.7875
       109        2.0000           -0.4328884             -11.7795
       110        2.0000           -0.4323563             -11.7650
       111        2.0000           -0.4310534             -11.7296
       112        2.0000           -0.4295995             -11.6900
       113        2.0000           -0.4276763             -11.6377
       114        2.0000           -0.4260765             -11.5941
       115        2.0000           -0.4222617             -11.4903
       116        2.0000           -0.4137811             -11.2596
       117        2.0000           -0.4118820             -11.2079
       118        2.0000           -0.4043797             -11.0037
       119        1.0000           -0.2800065              -7.6194 (HOMO)
       120                         -0.0445798              -1.2131 (LUMO)
       121                         -0.0215690              -0.5869
       122                         -0.0149920              -0.4080
       123                         -0.0064635              -0.1759
       124                          0.0084309               0.2294
       125                          0.0294906               0.8025
       126                          0.0392951               1.0693
       127                          0.0425349               1.1574
       128                          0.0499385               1.3589
       129                          0.0705216               1.9190
       130                          0.0815741               2.2197
       ...                                ...                  ...
       184                          0.4084083              11.1134
      -------------------------------------------------------------
                  HL-Gap            0.2354267 Eh            6.4063 eV

     #   Z          covCN         q      C6AA      α(0)
     1   6 C        3.680     0.036    20.178     6.434
     2   6 C        3.681     0.049    19.952     6.397
     3   6 C        3.751    -0.145    23.368     6.894
     4   6 C        2.815    -0.074    29.831     8.949
     5   1 H        0.924     0.086     1.915     2.164
     6   1 H        0.924     0.071     2.074     2.252
     7   1 H        0.925     0.051     2.307     2.375
     8   1 H        0.926     0.063     2.165     2.301
     9   1 H        0.924     0.050     2.314     2.379
    10   1 H        0.924     0.052     2.292     2.368
    11   1 H        0.925     0.049     2.327     2.385
    12   1 H        0.925     0.070     2.083     2.257
    13   8 O        1.691    -0.372    20.301     6.083
    14   7 N        2.634    -0.302    27.773     7.827
    15   1 H        0.860     0.215     1.034     1.593
    16   1 H        0.860     0.193     1.143     1.675
    17   8 O        1.608    -0.638    26.118     6.897
    18   1 H        0.804     0.307     0.701     1.315
    19   1 H        0.804     0.311     0.689     1.304
    20   8 O        1.608    -0.644    26.262     6.916
    21   1 H        0.804     0.323     0.656     1.273
    22   1 H        0.804     0.317     0.671     1.287
    23   8 O        1.608    -0.642    26.227     6.912
    24   1 H        0.803     0.334     0.626     1.243
    25   1 H        0.805     0.315     0.678     1.293
    26   8 O        1.608    -0.620    25.662     6.837
    27   1 H        0.806     0.280     0.784     1.391
    28   1 H        0.802     0.341     0.611     1.228
    29   8 O        1.610    -0.608    25.377     6.799
    30   1 H        0.806     0.277     0.794     1.399
    31   1 H        0.804     0.323     0.657     1.273
    32   8 O        1.609    -0.617    25.599     6.829
    33   1 H        0.803     0.338     0.616     1.233
    34   1 H        0.806     0.283     0.776     1.383
    35   8 O        1.606    -0.629    25.887     6.867
    36   1 H        0.806     0.284     0.771     1.379
    37   1 H        0.801     0.343     0.606     1.223
    38   8 O        1.604    -0.644    26.259     6.916
    39   1 H        0.806     0.279     0.788     1.394
    40   1 H        0.801     0.340     0.612     1.229
    41   8 O        1.605    -0.634    26.019     6.884
    42   1 H        0.806     0.285     0.769     1.377
    43   1 H        0.801     0.343     0.606     1.223
    44   8 O        1.608    -0.618    25.625     6.832
    45   1 H        0.803     0.337     0.619     1.236
    46   1 H        0.805     0.293     0.741     1.352
    47   8 O        1.609    -0.624    25.764     6.851
    48   1 H        0.805     0.313     0.683     1.298
    49   1 H        0.804     0.321     0.662     1.278
    50   8 O        1.609    -0.651    26.446     6.941
    51   1 H        0.803     0.329     0.641     1.258
    52   1 H        0.804     0.331     0.636     1.253
    53   8 O        1.608    -0.641    26.198     6.908
    54   1 H        0.803     0.321     0.662     1.279
    55   1 H        0.804     0.315     0.677     1.293
    56   8 O        1.608    -0.651    26.442     6.940
    57   1 H        0.804     0.303     0.713     1.326
    58   1 H        0.803     0.320     0.664     1.280
    59   8 O        1.609    -0.631    25.944     6.875
    60   1 H        0.805     0.316     0.674     1.289
    61   1 H        0.804     0.313     0.683     1.299
    62   8 O        1.605    -0.631    25.935     6.873
    63   1 H        0.801     0.346     0.597     1.214
    64   1 H        0.806     0.284     0.770     1.378
    65   8 O        1.607    -0.650    26.421     6.937
    66   1 H        0.803     0.321     0.662     1.278
    67   1 H        0.804     0.313     0.683     1.298
    68   8 O        1.610    -0.629    25.901     6.869
    69   1 H        0.804     0.317     0.673     1.289
    70   1 H        0.804     0.327     0.644     1.261
    71   8 O        1.605    -0.653    26.495     6.947
    72   1 H        0.804     0.318     0.669     1.285
    73   1 H        0.803     0.323     0.655     1.272
    74   8 O        1.609    -0.631    25.950     6.875
    75   1 H        0.804     0.313     0.683     1.298
    76   1 H        0.805     0.302     0.716     1.329
    77   8 O        1.606    -0.665    26.810     6.988
    78   1 H        0.802     0.331     0.635     1.252
    79   1 H        0.803     0.321     0.662     1.278
    80   8 O        1.609    -0.644    26.264     6.917
    81   1 H        0.804     0.319     0.667     1.282
    82   1 H        0.803     0.320     0.663     1.279
    83   8 O        1.609    -0.624    25.779     6.853
    84   1 H        0.805     0.312     0.687     1.302
    85   1 H        0.805     0.307     0.699     1.314
    86   8 O        1.608    -0.643    26.229     6.912
    87   1 H        0.803     0.323     0.656     1.273
    88   1 H        0.805     0.313     0.682     1.298
    89   8 O        1.610    -0.601    25.214     6.777
    90   1 H        0.805     0.318     0.669     1.285
    91   1 H        0.805     0.307     0.701     1.315

Wiberg/Mayer (AO) data.
largest (>0.10) Wiberg bond orders for each atom

     #   Z sym  total        # sym  WBO       # sym  WBO       # sym  WBO
 ---------------------------------------------------------------------------
     1   6 C    3.930 --     4 C    1.074     9 H    0.959     5 H    0.941
                            13 O    0.898
     2   6 C    3.937 --     3 C    1.014    10 H    0.963    13 O    0.962
                             6 H    0.957
     3   6 C    3.989 --     2 C    1.014     7 H    0.984    11 H    0.982
                            12 H    0.971
     4   6 C    3.235 --    14 N    1.155     1 C    1.074     8 H    0.961
     5   1 H    0.974 --     1 C    0.941
     6   1 H    0.993 --     2 C    0.957
     7   1 H    0.997 --     3 C    0.984
     8   1 H    0.996 --     4 C    0.961
     9   1 H    0.995 --     1 C    0.959
    10   1 H    0.996 --     2 C    0.963
    11   1 H    0.997 --     3 C    0.982
    12   1 H    0.995 --     3 C    0.971
    13   8 O    2.061 --     2 C    0.962     1 C    0.898
    14   7 N    3.149 --     4 C    1.155    16 H    0.929    15 H    0.903
    15   1 H    0.941 --    14 N    0.903
    16   1 H    0.956 --    14 N    0.929
    17   8 O    1.845 --    18 H    0.862    19 H    0.862
    18   1 H    0.906 --    17 O    0.862
    19   1 H    0.903 --    17 O    0.862
    20   8 O    1.857 --    21 H    0.858    22 H    0.849
    21   1 H    0.896 --    20 O    0.858
    22   1 H    0.899 --    20 O    0.849
    23   8 O    1.867 --    25 H    0.866    24 H    0.832
    24   1 H    0.888 --    23 O    0.832
    25   1 H    0.901 --    23 O    0.866
    26   8 O    1.858 --    27 H    0.917    28 H    0.820
    27   1 H    0.921 --    26 O    0.917
    28   1 H    0.884 --    26 O    0.820
    29   8 O    1.830 --    30 H    0.919    31 H    0.858
    30   1 H    0.923 --    29 O    0.919
    31   1 H    0.896 --    29 O    0.858
    32   8 O    1.855 --    34 H    0.916    33 H    0.830
    33   1 H    0.885 --    32 O    0.830
    34   1 H    0.920 --    32 O    0.916
    35   8 O    1.872 --    36 H    0.915    37 H    0.793
    36   1 H    0.919 --    35 O    0.915
    37   1 H    0.882 --    35 O    0.793
    38   8 O    1.847 --    39 H    0.912    40 H    0.777
    39   1 H    0.922 --    38 O    0.912
    40   1 H    0.884 --    38 O    0.777    50 O    0.104
    41   8 O    1.875 --    42 H    0.914    43 H    0.781
    42   1 H    0.919 --    41 O    0.914
    43   1 H    0.882 --    41 O    0.781
    44   8 O    1.878 --    46 H    0.911    45 H    0.822
    45   1 H    0.886 --    44 O    0.822
    46   1 H    0.914 --    44 O    0.911
    47   8 O    1.857 --    48 H    0.881    49 H    0.858
    48   1 H    0.902 --    47 O    0.881
    49   1 H    0.897 --    47 O    0.858
    50   8 O    1.883 --    52 H    0.842    51 H    0.828    40 H    0.104
    51   1 H    0.892 --    50 O    0.828
    52   1 H    0.891 --    50 O    0.842
    53   8 O    1.870 --    55 H    0.859    54 H    0.839
    54   1 H    0.897 --    53 O    0.839
    55   1 H    0.901 --    53 O    0.859
    56   8 O    1.822 --    57 H    0.870    58 H    0.836
    57   1 H    0.908 --    56 O    0.870
    58   1 H    0.898 --    56 O    0.836
    59   8 O    1.857 --    60 H    0.874    61 H    0.856
    60   1 H    0.900 --    59 O    0.874
    61   1 H    0.902 --    59 O    0.856
    62   8 O    1.882 --    64 H    0.915    63 H    0.780
    63   1 H    0.880 --    62 O    0.780
    64   1 H    0.919 --    62 O    0.915
    65   8 O    1.843 --    67 H    0.858    66 H    0.842
    66   1 H    0.897 --    65 O    0.842
    67   1 H    0.902 --    65 O    0.858
    68   8 O    1.888 --    69 H    0.856    70 H    0.852
    69   1 H    0.900 --    68 O    0.856
    70   1 H    0.893 --    68 O    0.852
    71   8 O    1.875 --    73 H    0.848    72 H    0.814
    72   1 H    0.896 --    71 O    0.814
    73   1 H    0.895 --    71 O    0.848
    74   8 O    1.829 --    76 H    0.886    75 H    0.857
    75   1 H    0.902 --    74 O    0.857
    76   1 H    0.909 --    74 O    0.886
    77   8 O    1.847 --    79 H    0.841    78 H    0.822
    78   1 H    0.890 --    77 O    0.822
    79   1 H    0.897 --    77 O    0.841
    80   8 O    1.879 --    81 H    0.844    82 H    0.840
    81   1 H    0.898 --    80 O    0.844
    82   1 H    0.897 --    80 O    0.840
    83   8 O    1.837 --    85 H    0.879    84 H    0.874
    84   1 H    0.903 --    83 O    0.874
    85   1 H    0.906 --    83 O    0.879
    86   8 O    1.853 --    88 H    0.873    87 H    0.836
    87   1 H    0.896 --    86 O    0.836
    88   1 H    0.902 --    86 O    0.873
    89   8 O    1.868 --    91 H    0.897    90 H    0.882
    90   1 H    0.899 --    89 O    0.882
    91   1 H    0.906 --    89 O    0.897
 ---------------------------------------------------------------------------

molecular dipole:
                 x           y           z       tot (Debye)
 q only:       -0.175       0.319      -0.149
   full:       -0.250       0.252       0.028       0.905

 projected vibrational frequencies (cm⁻¹)
eigval :       -0.00    -0.00    -0.00     0.00     0.00     0.00
eigval :       20.25    22.47    27.55    32.69    35.65    37.89
eigval :       42.57    45.57    47.40    51.77    52.83    53.99
eigval :       55.63    56.25    59.67    60.58    61.27    64.64
eigval :       68.26    69.44    71.98    74.00    75.52    76.70
eigval :       78.50    81.94    83.49    85.57    86.81    90.23
eigval :       91.73    96.27   102.51   108.43   114.99   115.36
eigval :      115.90   126.77   134.50   136.23   140.32   143.89
eigval :      146.32   149.55   156.40   159.52   162.24   167.10
eigval :      169.30   177.77   178.21   179.42   190.36   195.16
eigval :      202.22   204.89   207.66   215.53   221.67   227.32
eigval :      230.67   231.72   235.88   238.16   244.65   246.43
eigval :      247.77   256.71   260.36   265.81   270.40   275.47
eigval :      280.05   284.06   288.29   292.93   303.20   310.01
eigval :      312.32   320.21   325.21   329.82   343.25   349.86
eigval :      352.49   355.28   360.91   367.62   369.73   377.10
eigval :      384.85   387.15   395.33   398.80   403.18   404.97
eigval :      414.80   424.04   429.65   441.33   447.13   448.99
eigval :      452.62   473.78   474.99   483.02   486.39   490.27
eigval :      493.51   498.40   503.67   509.01   511.97   513.54
eigval :      519.85   526.93   534.23   539.69   541.32   552.92
eigval :      558.98   563.62   568.54   578.26   580.72   582.00
eigval :      588.01   594.46   597.64   611.16   621.38   624.81
eigval :      629.90   633.13   637.20   639.40   652.33   661.34
eigval :      665.31   669.76   677.38   684.50   693.56   723.64
eigval :      727.61   731.02   742.67   760.08   764.16   785.96
eigval :      794.20   796.19   815.73   823.05   826.74   846.69
eigval :      865.11   883.09   903.62   918.74   920.70   935.04
eigval :      941.71   965.02   988.07  1017.71  1080.77  1094.99
eigval :     1127.87  1162.47  1228.96  1247.39  1272.45  1312.84
eigval :     1336.32  1383.52  1399.35  1435.90  1452.81  1473.80
eigval :     1480.30  1495.70  1512.89  1520.92  1522.27  1524.18
eigval :     1525.78  1527.19  1529.25  1533.21  1534.74  1535.49
eigval :     1537.19  1541.24  1542.54  1545.85  1548.12  1549.85
eigval :     1554.72  1555.38  1558.11  1560.59  1565.36  1568.03
eigval :     1569.89  1577.95  1583.10  2835.85  2862.07  2904.01
eigval :     2905.24  2965.56  2979.86  2983.06  2990.32  3052.42
eigval :     3054.13  3060.94  3069.42  3147.70  3157.47  3165.10
eigval :     3192.83  3212.54  3230.16  3257.97  3260.87  3276.79
eigval :     3283.76  3293.93  3300.14  3324.97  3354.96  3360.38
eigval :     3367.47  3372.91  3374.89  3377.41  3382.27  3393.93
eigval :     3403.32  3409.84  3410.45  3417.53  3422.49  3428.39
eigval :     3432.82  3434.21  3454.68  3465.06  3484.88  3509.48
eigval :     3511.13  3514.34  3527.32  3539.84  3547.36  3562.33
eigval :     3598.90  3657.29  3668.93  3670.13  3671.64  3673.31
eigval :     3673.57  3674.62  3682.91

   temp. (K)  partition function   enthalpy   heat capacity  entropy
                                   cal/mol     cal/K/mol   cal/K/mol   J/K/mol
 298.15  VIB  0.325E+34            43365.715    233.396    281.038
         ROT  0.369E+08              888.752      2.981     37.605
         INT  0.120E+42            44254.468    236.377    318.643
         TR   0.121E+29             1481.254      4.968     44.716
         TOT                       45735.7217   241.3447   363.3592  1520.2949

       T/K    H(0)-H(T)+PV         H(T)/Eh          T*S/Eh         G(T)/Eh
   ------------------------------------------------------------------------
    298.15    0.728845E-01    0.809003E+00    0.172644E+00    0.636359E+00
   ------------------------------------------------------------------------

         :::::::::::::::::::::::::::::::::::::::::::::::::::::
         ::                  THERMODYNAMIC                  ::
         :::::::::::::::::::::::::::::::::::::::::::::::::::::
         :: total free energy        -147.106148081464 Eh   ::
         ::.................................................::
         :: total energy             -147.742507456430 Eh   ::
         :: zero point energy           0.736118539881 Eh   ::
         :: G(RRHO) w/o ZPVE           -0.099759164915 Eh   ::
         :: G(RRHO) contrib.            0.636359374966 Eh   ::
         :::::::::::::::::::::::::::::::::::::::::::::::::::::

           -------------------------------------------------
          | TOTAL ENERGY             -147.742507456430 Eh   |
          | TOTAL ENTHALPY           -146.933504404681 Eh   |
          | TOTAL FREE ENERGY        -147.106148081464 Eh   |
          | GRADIENT NORM               0.000357127253 Eh/α |
          | HOMO-LUMO GAP               6.406285701542 eV   |
           -------------------------------------------------

 * finished run on 2022/10/12 at 03:16:08.938
