   * xtb version 6.5.1 (579679a) compiled by 'ehlert@majestix' on 2022-07-11
          program call               : xtb cluster.xyz --gfn2 --ohess

   ID    Z sym.   atoms
    1    1 H      1, 3, 4, 6, 8, 9, 11-13, 15, 16, 18, 19, 21, 22, 24, 25,
                  27, 28, 30, 31, 33, 34, 36, 37, 39, 40, 42, 43, 45, 46, 48,
                  49, 51, 52, 54, 55, 57, 58, 60, 61, 63, 64, 66, 67, 69, 70,
                  72, 73, 75, 76, 78, 79, 81, 82, 84, 85, 87, 88, 90, 91
    2    6 C      2, 5, 7, 10
    3    7 N      14
    4    8 O      17, 20, 23, 26, 29, 32, 35, 38, 41, 44, 47, 50, 53, 56, 59,
                  62, 65, 68, 71, 74, 77, 80, 83, 86, 89

          :  Hamiltonian                  GFN2-xTB          :
 * total energy  :  -144.2598614 Eh     change       -0.5400125E-10 Eh
   *** GEOMETRY OPTIMIZATION CONVERGED AFTER 1 ITERATIONS ***

 final structure:
================
91
 xtb: 6.5.1 (579679a)
H            1.56693209910000        2.29508542880000       -0.18862447940000
C            0.52449028180000        2.04130789400000       -0.35149132330000
H           -0.09433992020000        2.83295997010000        0.05696411670000
H            0.34626513130000        1.98706333420000       -1.42052347400000
C            0.19871741770000        0.70283684050000        0.30449852610000
H            0.28393098590000        0.80598113910000        1.39074821820000
C           -1.24330194430000        0.29582929650000       -0.01673413650000
H           -1.32844410010000        0.06331554680000       -1.07966542040000
H           -1.90432468290000        1.13530490750000        0.20720905770000
C            1.17919262330000       -0.36260089200000       -0.16866935220000
H            0.94820111880000       -1.33175809010000        0.26282834340000
H            2.18521068700000       -0.09089427850000        0.12685149370000
H            1.14408567920000       -0.44369625910000       -1.25039564090000
N           -1.72810904540000       -0.86619590290000        0.73487811890000
H           -1.16786908190000       -1.67887736510000        0.49343196860000
H           -1.56319490910000       -0.70700822960000        1.72989961930000
O           -2.61139289970000        3.60743571580000       -0.34348971410000
H           -2.71648846180000        4.53977267950000       -0.53575070480000
H           -2.15689569790000        3.54284773800000        0.52667692480000
O           -4.24951424160000        0.22026295120000       -2.26399171820000
H           -4.13348032460000       -0.51665717130000       -1.61874338400000
H           -4.80346048490000       -0.11393983310000       -2.96943589540000
O           -2.23371214350000       -3.41008464580000       -1.62753544070000
H           -1.68787091140000       -3.63940628310000       -0.85215784660000
H           -2.99442722480000       -2.92072765890000       -1.28326258440000
O           -2.53835892020000        1.62380994660000        3.47399015780000
H           -1.94730792080000        0.86659499660000        3.61054799520000
H           -3.32635842600000        1.25725139450000        3.02229952750000
O           -3.99685290260000       -1.65759274130000       -0.38053159430000
H           -3.14632342630000       -1.36849954720000        0.07492805360000
H           -4.69403206070000       -1.54337484340000        0.27058087580000
O           -0.57471591430000       -2.00718283120000       -3.10503646120000
H           -1.22111610480000       -2.49214894450000       -2.52899041300000
H           -0.63922804780000       -2.42552931050000       -3.96507902670000
O            2.08240103690000       -2.53521545160000       -2.56131598830000
H            1.12671916490000       -2.34955928430000       -2.59647222530000
H            2.43047469600000       -2.11956383430000       -3.37331156650000
O            4.11601178580000       -1.72452042090000       -0.80871537230000
H            3.45168019340000       -1.97785967090000       -1.47097502820000
H            4.26479852990000       -0.76067723350000       -0.92960397260000
O            2.51346154630000       -0.87287628000000       -4.66706841100000
H            1.61844407470000       -0.60071344350000       -4.89252450450000
H            2.88975868430000       -0.11124546860000       -4.19921531640000
O            4.24701900630000        0.93845875340000       -1.13657510520000
H            3.93535121570000        1.42970515290000       -0.35905671570000
H            3.63273575920000        1.14804409780000       -1.85733939820000
O            1.31079211760000        3.16494601940000        2.78792649660000
H            0.43289577150000        3.22225100810000        2.37605228170000
H            1.94205981930000        2.91265886600000        2.09161899370000
O           -1.40175001370000        3.48536076660000        2.07068881330000
H           -1.56050242020000        4.26592961540000        2.60415614530000
H           -1.82083056470000        2.73255541910000        2.58908302710000
O           -4.88352826500000        2.02611629270000       -0.23671273240000
H           -4.78522574670000        1.46564611860000       -1.02205529270000
H           -4.14153327120000        2.65184377810000       -0.27164337400000
O            0.00329527700000        0.65046940590000       -3.68333653610000
H           -0.74477288460000        1.21708356860000       -3.41299557630000
H           -0.23087456460000       -0.24643178200000       -3.39429708710000
O            1.41942123760000        1.04886304880000        4.33740696480000
H            1.54730433330000        1.32131012600000        5.24573926950000
H            1.35807030430000        1.88286891510000        3.79711008290000
O            3.44451174110000        2.18108012270000        1.25329515180000
H            4.21289429140000        2.67691146910000        1.53943098340000
H            3.45483667790000        1.34314840040000        1.78869622400000
O           -0.70835873700000       -0.46683577550000        3.50270329100000
H           -0.31323636060000       -1.34621356830000        3.35721230890000
H            0.02303876240000        0.06653410920000        3.85746531950000
O            2.49359805980000        1.51563783280000       -3.23100573520000
H            2.54493328770000        2.39251203790000       -3.61155964240000
H            1.55130409650000        1.23576465720000       -3.30179721890000
O           -0.59476250880000       -3.95537292330000        0.50549309850000
H           -0.85001026350000       -4.82584756780000        0.81453698220000
H            0.31899135410000       -4.06608501480000        0.10961199120000
O            0.61309724350000       -2.73126150700000        2.72212023400000
H            0.10218689630000       -3.15532159630000        2.01473746830000
H            1.50476415920000       -2.60595490260000        2.37121110360000
O            3.42422744340000        0.01738281550000        2.75701764100000
H            3.21822620620000       -0.83050789660000        2.33134720650000
H            2.70185927830000        0.21122134130000        3.37884125380000
O            3.19599040980000       -2.47404898970000        1.46854350290000
H            3.92109178280000       -2.93015770290000        1.89829020710000
H            3.57703328980000       -2.11702189840000        0.60157037320000
O            1.85139765420000       -4.17657564690000       -0.34179683170000
H            2.36139065710000       -3.66464656670000        0.30823664150000
H            2.01469277230000       -3.74979578520000       -1.19836967720000
O           -2.14759534900000        2.02966407980000       -2.72725844590000
H           -2.88143625420000        1.40294075180000       -2.63869952610000
H           -2.17211754450000        2.57613484080000       -1.93032216540000
O           -4.30619826670000        0.40632756740000        1.82815901660000
H           -3.50974084190000        0.01705546280000        1.45062529960000
H           -4.64290684180000        1.03775089780000        1.15519854770000

          :  Hamiltonian                  GFN2-xTB          :
         :: gradient norm              0.000525217900 Eh/a0 ::
         :: HOMO-LUMO gap              9.229220218663 eV    ::
         :: SCC energy              -145.264564549212 Eh    ::
         :: -> dispersion             -0.069640261898 Eh    ::
         :: repulsion energy           0.998213716289 Eh    ::

    * Orbital Energies and Occupations

         #    Occupation            Energy/Eh            Energy/eV
      -------------------------------------------------------------
         1        2.0000           -0.6904411             -18.7879
       ...           ...                  ...                  ...
       104        2.0000           -0.4302552             -11.7078
       105        2.0000           -0.4293111             -11.6822
       106        2.0000           -0.4286992             -11.6655
       107        2.0000           -0.4283121             -11.6550
       108        2.0000           -0.4269889             -11.6190
       109        2.0000           -0.4253250             -11.5737
       110        2.0000           -0.4250402             -11.5659
       111        2.0000           -0.4214452             -11.4681
       112        2.0000           -0.4205460             -11.4436
       113        2.0000           -0.4166961             -11.3389
       114        2.0000           -0.4164376             -11.3318
       115        2.0000           -0.4055094             -11.0345
       116        2.0000           -0.3813386             -10.3768 (HOMO)
       117                         -0.0421710              -1.1475 (LUMO)
       118                         -0.0170006              -0.4626
       119                         -0.0109286              -0.2974
       120                         -0.0059405              -0.1616
       121                          0.0237008               0.6449
       122                          0.0306499               0.8340
       123                          0.0439882               1.1970
       124                          0.0578875               1.5752
       125                          0.0599915               1.6325
       126                          0.0678691               1.8468
       127                          0.0790624               2.1514
       ...                                ...                  ...
       181                          0.3634635               9.8903
      -------------------------------------------------------------
                  HL-Gap            0.3391676 Eh            9.2292 eV

     #   Z          covCN         q      C6AA      α(0)
     1   1 H        0.925     0.055     2.256     2.349
     2   6 C        3.758    -0.146    23.373     6.893
     3   1 H        0.925     0.042     2.419     2.432
     4   1 H        0.925     0.052     2.300     2.372
     5   6 C        3.849    -0.031    21.093     6.532
     6   1 H        0.924     0.045     2.378     2.411
     7   6 C        3.736    -0.020    21.016     6.542
     8   1 H        0.924     0.055     2.263     2.352
     9   1 H        0.924     0.049     2.328     2.386
    10   6 C        3.758    -0.148    23.409     6.898
    11   1 H        0.925     0.044     2.393     2.419
    12   1 H        0.925     0.061     2.187     2.312
    13   1 H        0.925     0.056     2.252     2.347
    14   7 N        2.643    -0.398    30.320     8.178
    15   1 H        0.860     0.175     1.246     1.748
    16   1 H        0.860     0.194     1.136     1.670
    17   8 O        1.608    -0.617    25.606     6.830
    18   1 H        0.806     0.283     0.775     1.382
    19   1 H        0.802     0.333     0.630     1.247
    20   8 O        1.607    -0.624    25.769     6.851
    21   1 H        0.802     0.336     0.623     1.240
    22   1 H        0.806     0.283     0.774     1.382
    23   8 O        1.609    -0.631    25.947     6.875
    24   1 H        0.804     0.319     0.667     1.283
    25   1 H        0.805     0.318     0.670     1.286
    26   8 O        1.610    -0.634    26.006     6.883
    27   1 H        0.804     0.325     0.651     1.267
    28   1 H        0.803     0.324     0.653     1.270
    29   8 O        1.603    -0.642    26.209     6.909
    30   1 H        0.814     0.325     0.650     1.265
    31   1 H        0.805     0.299     0.722     1.335
    32   8 O        1.606    -0.631    25.934     6.873
    33   1 H        0.802     0.340     0.613     1.230
    34   1 H        0.806     0.285     0.766     1.375
    35   8 O        1.607    -0.656    26.572     6.957
    36   1 H        0.804     0.317     0.673     1.288
    37   1 H        0.803     0.320     0.664     1.280
    38   8 O        1.612    -0.640    26.170     6.904
    39   1 H        0.804     0.322     0.658     1.274
    40   1 H        0.803     0.332     0.633     1.250
    41   8 O        1.609    -0.606    25.335     6.793
    42   1 H        0.805     0.300     0.720     1.333
    43   1 H        0.804     0.319     0.666     1.282
    44   8 O        1.608    -0.634    26.008     6.883
    45   1 H        0.804     0.310     0.693     1.307
    46   1 H        0.804     0.317     0.673     1.289
    47   8 O        1.609    -0.630    25.911     6.870
    48   1 H        0.804     0.318     0.670     1.286
    49   1 H        0.804     0.321     0.660     1.277
    50   8 O        1.603    -0.635    26.041     6.887
    51   1 H        0.805     0.283     0.774     1.382
    52   1 H        0.801     0.349     0.592     1.209
    53   8 O        1.608    -0.634    26.014     6.884
    54   1 H        0.804     0.312     0.687     1.302
    55   1 H        0.804     0.313     0.685     1.300
    56   8 O        1.608    -0.649    26.396     6.934
    57   1 H        0.803     0.323     0.655     1.272
    58   1 H        0.804     0.315     0.677     1.292
    59   8 O        1.606    -0.628    25.859     6.863
    60   1 H        0.806     0.282     0.778     1.385
    61   1 H        0.801     0.341     0.609     1.226
    62   8 O        1.606    -0.627    25.833     6.860
    63   1 H        0.806     0.282     0.779     1.386
    64   1 H        0.801     0.343     0.606     1.223
    65   8 O        1.608    -0.656    26.564     6.956
    66   1 H        0.804     0.319     0.666     1.282
    67   1 H        0.804     0.311     0.689     1.304
    68   8 O        1.608    -0.624    25.771     6.851
    69   1 H        0.806     0.279     0.786     1.393
    70   1 H        0.802     0.340     0.613     1.230
    71   8 O        1.604    -0.635    26.042     6.887
    72   1 H        0.806     0.285     0.767     1.375
    73   1 H        0.801     0.345     0.601     1.218
    74   8 O        1.609    -0.632    25.960     6.877
    75   1 H        0.804     0.308     0.697     1.311
    76   1 H        0.805     0.311     0.688     1.303
    77   8 O        1.609    -0.635    26.033     6.886
    78   1 H        0.804     0.316     0.675     1.291
    79   1 H        0.804     0.320     0.663     1.280
    80   8 O        1.602    -0.649    26.402     6.935
    81   1 H        0.806     0.284     0.772     1.380
    82   1 H        0.802     0.352     0.584     1.201
    83   8 O        1.610    -0.628    25.869     6.865
    84   1 H        0.804     0.320     0.663     1.279
    85   1 H        0.804     0.331     0.635     1.252
    86   8 O        1.609    -0.631    25.939     6.874
    87   1 H        0.804     0.314     0.680     1.295
    88   1 H        0.805     0.312     0.686     1.301
    89   8 O        1.608    -0.643    26.252     6.915
    90   1 H        0.805     0.304     0.708     1.322
    91   1 H        0.803     0.325     0.651     1.268

Wiberg/Mayer (AO) data.
largest (>0.10) Wiberg bond orders for each atom

     #   Z sym  total        # sym  WBO       # sym  WBO       # sym  WBO
 ---------------------------------------------------------------------------
     1   1 H    0.997 --     2 C    0.978
     2   6 C    3.993 --     5 C    1.007     3 H    0.979     4 H    0.978
                             1 H    0.978
     3   1 H    0.998 --     2 C    0.979
     4   1 H    0.997 --     2 C    0.978
     5   6 C    3.996 --    10 C    1.010     2 C    1.007     7 C    0.989
                             6 H    0.962
     6   1 H    0.998 --     5 C    0.962
     7   6 C    3.975 --    14 N    1.009     5 C    0.989     8 H    0.969
                             9 H    0.968
     8   1 H    0.997 --     7 C    0.969
     9   1 H    0.997 --     7 C    0.968
    10   6 C    3.992 --     5 C    1.010    13 H    0.979    11 H    0.977
                            12 H    0.974
    11   1 H    0.998 --    10 C    0.977
    12   1 H    0.996 --    10 C    0.974
    13   1 H    0.997 --    10 C    0.979
    14   7 N    3.125 --     7 C    1.009    15 H    0.942    16 H    0.918
                            30 H    0.115
    15   1 H    0.969 --    14 N    0.942
    16   1 H    0.962 --    14 N    0.918
    17   8 O    1.864 --    18 H    0.916    19 H    0.817
    18   1 H    0.920 --    17 O    0.916
    19   1 H    0.889 --    17 O    0.817
    20   8 O    1.859 --    22 H    0.914    21 H    0.811
    21   1 H    0.887 --    20 O    0.811
    22   1 H    0.920 --    20 O    0.914
    23   8 O    1.882 --    25 H    0.865    24 H    0.845
    24   1 H    0.898 --    23 O    0.845
    25   1 H    0.899 --    23 O    0.865
    26   8 O    1.894 --    27 H    0.859    28 H    0.836    52 H    0.106
    27   1 H    0.894 --    26 O    0.859
    28   1 H    0.895 --    26 O    0.836
    29   8 O    1.879 --    31 H    0.897    30 H    0.770
    30   1 H    0.894 --    29 O    0.770    14 N    0.115
    31   1 H    0.910 --    29 O    0.897
    32   8 O    1.865 --    34 H    0.916    33 H    0.791
    33   1 H    0.885 --    32 O    0.791
    34   1 H    0.918 --    32 O    0.916
    35   8 O    1.834 --    36 H    0.847    37 H    0.841
    36   1 H    0.900 --    35 O    0.847
    37   1 H    0.898 --    35 O    0.841
    38   8 O    1.898 --    39 H    0.855    40 H    0.821    82 H    0.118
    39   1 H    0.896 --    38 O    0.855
    40   1 H    0.890 --    38 O    0.821
    41   8 O    1.864 --    42 H    0.902    43 H    0.869
    42   1 H    0.910 --    41 O    0.902
    43   1 H    0.898 --    41 O    0.869
    44   8 O    1.859 --    46 H    0.862    45 H    0.859
    45   1 H    0.904 --    44 O    0.859
    46   1 H    0.900 --    44 O    0.862
    47   8 O    1.887 --    48 H    0.858    49 H    0.855
    48   1 H    0.899 --    47 O    0.858
    49   1 H    0.897 --    47 O    0.855
    50   8 O    1.883 --    51 H    0.916    52 H    0.770
    51   1 H    0.920 --    50 O    0.916
    52   1 H    0.879 --    50 O    0.770    26 O    0.106
    53   8 O    1.859 --    54 H    0.864    55 H    0.859
    54   1 H    0.903 --    53 O    0.864
    55   1 H    0.902 --    53 O    0.859
    56   8 O    1.848 --    58 H    0.857    57 H    0.840
    57   1 H    0.895 --    56 O    0.840
    58   1 H    0.901 --    56 O    0.857
    59   8 O    1.874 --    60 H    0.914    61 H    0.791
    60   1 H    0.920 --    59 O    0.914
    61   1 H    0.883 --    59 O    0.791
    62   8 O    1.876 --    63 H    0.917    64 H    0.795
    63   1 H    0.921 --    62 O    0.917
    64   1 H    0.883 --    62 O    0.795
    65   8 O    1.823 --    67 H    0.853    66 H    0.842
    66   1 H    0.898 --    65 O    0.842
    67   1 H    0.903 --    65 O    0.853
    68   8 O    1.853 --    69 H    0.917    70 H    0.810
    69   1 H    0.922 --    68 O    0.917
    70   1 H    0.885 --    68 O    0.810
    71   8 O    1.880 --    72 H    0.915    73 H    0.777
    72   1 H    0.919 --    71 O    0.915
    73   1 H    0.881 --    71 O    0.777    83 O    0.101
    74   8 O    1.842 --    76 H    0.874    75 H    0.862
    75   1 H    0.905 --    74 O    0.862
    76   1 H    0.903 --    74 O    0.874
    77   8 O    1.875 --    78 H    0.855    79 H    0.853
    78   1 H    0.900 --    77 O    0.855
    79   1 H    0.897 --    77 O    0.853
    80   8 O    1.867 --    81 H    0.916    82 H    0.750
    81   1 H    0.919 --    80 O    0.916
    82   1 H    0.876 --    80 O    0.750    38 O    0.118
    83   8 O    1.895 --    84 H    0.854    85 H    0.854    73 H    0.101
    84   1 H    0.897 --    83 O    0.854
    85   1 H    0.890 --    83 O    0.854
    86   8 O    1.843 --    88 H    0.872    87 H    0.866
    87   1 H    0.901 --    86 O    0.866
    88   1 H    0.903 --    86 O    0.872
    89   8 O    1.850 --    90 H    0.881    91 H    0.830
    90   1 H    0.907 --    89 O    0.881
    91   1 H    0.894 --    89 O    0.830
 ---------------------------------------------------------------------------

molecular dipole:
                 x           y           z       tot (Debye)
 q only:       -0.540       0.535      -0.099
   full:       -0.685       0.855      -0.027       2.786

 projected vibrational frequencies (cm⁻¹)
eigval :       -0.00    -0.00     0.00     0.00     0.00     0.00
eigval :       25.00    32.91    34.39    40.41    41.50    43.67
eigval :       44.77    47.03    49.64    51.40    52.79    55.11
eigval :       55.82    57.92    60.42    62.02    64.68    65.42
eigval :       66.58    68.39    70.10    75.74    76.03    79.85
eigval :       81.47    83.30    85.44    90.14    91.67    94.01
eigval :       96.23   107.40   109.02   113.78   116.38   119.03
eigval :      120.82   129.64   139.46   141.85   145.77   150.37
eigval :      154.97   158.02   159.47   160.54   165.56   171.37
eigval :      176.87   183.64   188.10   191.68   194.64   200.60
eigval :      202.15   214.17   214.83   217.57   222.64   229.25
eigval :      231.28   232.75   237.49   243.55   253.72   256.35
eigval :      266.14   269.81   278.68   280.14   285.72   289.93
eigval :      296.58   304.64   306.20   314.85   318.46   327.88
eigval :      331.64   340.55   342.21   347.00   353.00   361.22
eigval :      370.54   376.24   380.62   385.61   386.05   391.00
eigval :      394.68   411.20   422.21   428.07   440.05   440.76
eigval :      443.30   445.76   457.26   463.27   469.90   476.16
eigval :      480.47   487.42   491.20   499.86   501.65   504.57
eigval :      510.87   514.40   519.64   525.18   529.83   534.31
eigval :      535.33   540.53   549.63   555.07   568.55   574.91
eigval :      576.44   583.25   588.39   592.27   600.51   601.56
eigval :      606.83   617.40   622.31   625.28   630.07   634.53
eigval :      640.34   647.96   660.98   679.34   683.62   691.74
eigval :      707.27   714.94   728.44   728.98   739.17   748.89
eigval :      759.82   773.74   789.04   801.13   813.08   826.47
eigval :      849.14   859.53   867.63   870.01   886.83   894.59
eigval :      944.42   950.20   952.87   976.28   979.18   994.46
eigval :     1021.94  1043.91  1089.01  1118.79  1169.22  1194.77
eigval :     1211.84  1304.24  1306.01  1337.34  1355.06  1406.13
eigval :     1420.24  1472.60  1485.19  1486.63  1496.42  1501.54
eigval :     1506.36  1513.09  1517.03  1518.21  1519.72  1522.60
eigval :     1523.56  1525.10  1526.58  1528.32  1530.78  1532.11
eigval :     1537.68  1539.56  1541.64  1544.34  1547.03  1548.14
eigval :     1551.04  1552.32  1557.61  1560.84  1562.82  1569.23
eigval :     1580.40  1583.61  2676.23  2683.72  2785.69  2850.50
eigval :     2940.21  2948.99  2986.12  2993.23  3001.03  3006.83
eigval :     3054.50  3064.58  3070.38  3073.25  3077.15  3090.95
eigval :     3124.91  3130.72  3163.40  3181.22  3192.64  3260.47
eigval :     3284.89  3302.62  3304.29  3318.36  3327.29  3356.09
eigval :     3358.70  3372.00  3383.44  3390.79  3394.85  3401.92
eigval :     3411.12  3417.53  3421.49  3422.91  3434.80  3435.73
eigval :     3449.94  3452.69  3461.01  3463.42  3465.88  3467.88
eigval :     3487.03  3513.64  3518.17  3565.22  3606.40  3620.94
eigval :     3662.61  3665.09  3667.34  3668.03  3669.45  3671.89
eigval :     3680.36  3681.32  3684.76

   temp. (K)  partition function   enthalpy   heat capacity  entropy
                                   cal/mol     cal/K/mol   cal/K/mol   J/K/mol
 298.15  VIB  0.906E+32            42058.871    228.367    272.245
         ROT  0.348E+08              888.752      2.981     37.491
         INT  0.315E+40            42947.623    231.348    309.736
         TR   0.116E+29             1481.254      4.968     44.632
         TOT                       44428.8770   236.3160   354.3682  1482.6767

       T/K    H(0)-H(T)+PV         H(T)/Eh          T*S/Eh         G(T)/Eh
   ------------------------------------------------------------------------
    298.15    0.708019E-01    0.817898E+00    0.168372E+00    0.649526E+00
   ------------------------------------------------------------------------

         :::::::::::::::::::::::::::::::::::::::::::::::::::::
         ::                  THERMODYNAMIC                  ::
         :::::::::::::::::::::::::::::::::::::::::::::::::::::
         :: total free energy        -143.610334940098 Eh   ::
         ::.................................................::
         :: total energy             -144.259861425927 Eh   ::
         :: zero point energy           0.747096348416 Eh   ::
         :: G(RRHO) w/o ZPVE           -0.097569862588 Eh   ::
         :: G(RRHO) contrib.            0.649526485829 Eh   ::
         :::::::::::::::::::::::::::::::::::::::::::::::::::::

           -------------------------------------------------
          | TOTAL ENERGY             -144.259861425927 Eh   |
          | TOTAL ENTHALPY           -143.441963155285 Eh   |
          | TOTAL FREE ENERGY        -143.610334940098 Eh   |
          | GRADIENT NORM               0.000525211060 Eh/α |
          | HOMO-LUMO GAP               9.229220265874 eV   |
           -------------------------------------------------

 * finished run on 2022/10/12 at 01:33:02.484
