   * xtb version 6.5.1 (579679a) compiled by 'ehlert@majestix' on 2022-07-11
          program call               : xtb cluster.xyz --gfn2 --ohess

   ID    Z sym.   atoms
    1    1 H      1, 3, 4, 6, 8, 9, 11-13, 15, 16, 18, 19, 21, 22, 24, 25,
                  27, 28, 30, 31, 33, 34, 36, 37, 39, 40, 42, 43, 45, 46, 48,
                  49, 51, 52, 54, 55, 57, 58, 60, 61, 63, 64, 66, 67, 69, 70,
                  72, 73, 75, 76, 78, 79, 81, 82, 84, 85, 87, 88, 90, 91
    2    6 C      2, 5, 7, 10
    3    7 N      14
    4    8 O      17, 20, 23, 26, 29, 32, 35, 38, 41, 44, 47, 50, 53, 56, 59,
                  62, 65, 68, 71, 74, 77, 80, 83, 86, 89

          :  Hamiltonian                  GFN2-xTB          :
 * total energy  :  -144.2597256 Eh     change       -0.5454126E-10 Eh
   *** GEOMETRY OPTIMIZATION CONVERGED AFTER 1 ITERATIONS ***

 final structure:
================
91
 xtb: 6.5.1 (579679a)
H            0.58785077120000       -0.05967189740000       -1.88698054840000
C            1.04402969930000        0.15732082480000       -0.92674890720000
H            2.11831902940000        0.21403628850000       -1.04922042270000
H            0.69291928790000        1.12773592180000       -0.59336191720000
C            0.68582580560000       -0.93022832570000        0.08096542860000
H            1.15948404760000       -0.69420282050000        1.03541481340000
C           -0.82472389990000       -0.95380771050000        0.31402555590000
H           -1.12302904130000       -1.92730660910000        0.70634562800000
H           -1.33973944130000       -0.79890585180000       -0.63914104320000
C            1.17962509740000       -2.29797615740000       -0.37892644410000
H            0.96269655110000       -3.04953880130000        0.37411976540000
H            2.25273971530000       -2.27901359200000       -0.54237022270000
H            0.69136030410000       -2.58792588310000       -1.30418825040000
N           -1.19695712900000        0.05141778420000        1.30748687720000
H           -0.73299457060000        0.92855543090000        1.10873073780000
H           -2.19478629040000        0.21439673580000        1.29000372850000
O           -2.20819890290000        2.29719396950000       -0.87977741150000
H           -1.42782397490000        2.45495970520000       -0.31760834200000
H           -2.92508893800000        2.07379988460000       -0.25895092180000
O           -2.16835102360000        0.60279364700000       -2.94026249420000
H           -3.02026074170000        0.77255278000000       -3.34389903570000
H           -2.12177090780000        1.18218797280000       -2.14401231800000
O           -1.19472788000000       -1.99093652340000       -3.06213709520000
H           -1.52551895010000       -1.07762110300000       -3.08507799080000
H           -1.67442893730000       -2.41214767930000       -2.33379792570000
O           -0.40476193530000        1.71186916370000        4.21033527740000
H           -0.54551220900000        0.75051896630000        4.22023396400000
H            0.41756931160000        1.85981080440000        3.72525007280000
O           -3.05983984620000       -2.81117419010000       -1.02665476390000
H           -3.46920852250000       -2.12517895710000       -0.45079069890000
H           -3.78843040690000       -3.27327906460000       -1.44381469620000
O            1.40297878140000       -1.72229727790000       -3.75912137500000
H            1.46118897320000       -2.18921350610000       -4.59328700070000
H            0.47931422650000       -1.84490238470000       -3.44627155320000
O            3.82978250120000       -1.01897110600000       -2.44386971980000
H            3.00296096600000       -1.45912270880000       -2.69557007450000
H            3.84782648160000       -0.21135094480000       -2.96580324340000
O            0.16242710520000       -4.70658798940000        1.91872836280000
H           -0.78811765020000       -4.54835874400000        1.70023130120000
H            0.43692316480000       -5.45822668140000        1.39360437580000
O            2.09835672950000        0.96987855130000       -4.05737680010000
H            1.25670209530000        1.42750140410000       -4.29351232630000
H            1.84103077310000        0.04078781390000       -3.93049886050000
O            3.06715606950000        2.59251705620000       -2.26599365580000
H            3.67749823650000        3.09369905470000       -2.80846459150000
H            2.64387432690000        1.93251682370000       -2.88383964240000
O            1.81297156850000        1.88821987640000        2.31590003330000
H            2.54780887740000        2.18344251970000        1.74395302770000
H            2.08281912910000        0.97780127900000        2.55109141470000
O           -2.18926383250000        2.91785266610000        2.60832881620000
H           -1.51327296280000        3.17706409760000        1.96265869810000
H           -1.67369052250000        2.47794921710000        3.32088363900000
O           -3.92107378460000        1.62960643240000        1.16431774100000
H           -3.28803355510000        2.08330495960000        1.79913235350000
H           -4.75729603680000        2.08428692410000        1.26865912660000
O           -0.29450049230000        2.05440958780000       -4.42282799780000
H           -0.45843388510000        2.89329253290000       -3.94860980920000
H           -0.90548818820000        1.42118099460000       -4.01392181490000
O           -0.10531289890000        2.92299092980000        0.77479842260000
H            0.38869181690000        3.50965049470000        0.17512116800000
H            0.57059478510000        2.54790472840000        1.38559902840000
O            3.77652904560000        2.14750418280000        0.43717331710000
H            3.51143010290000        2.29553548430000       -0.48144099110000
H            4.02648922180000        1.21068359020000        0.48072085860000
O           -0.85641750910000       -0.99075713510000        3.67605020530000
H           -0.89518050280000       -0.56070467190000        2.76288595130000
H           -0.08793420900000       -1.58472813080000        3.64543934890000
O            1.35743807790000        4.29394242840000       -1.07735398830000
H            1.93611918760000        3.62894417300000       -1.51463932480000
H            1.93719549840000        4.96188495100000       -0.70930715420000
O           -3.10434642540000       -2.22428145740000        3.07687353790000
H           -3.60041769930000       -2.38633615920000        3.87901098820000
H           -2.25933085060000       -1.77369996360000        3.35589884250000
O            1.26469836040000       -2.75692153510000        3.39831135050000
H            0.89719818340000       -3.44049680170000        2.80170720060000
H            1.52241000130000       -3.21040861340000        4.20169474840000
O            2.88086130870000       -0.57882798570000        2.67297772380000
H            3.35834791220000       -0.73210275510000        1.84683030090000
H            2.37449501820000       -1.38016069470000        2.87108962130000
O            4.38297547000000       -0.60019068980000        0.19293041080000
H            4.15783641140000       -0.79128887880000       -0.74274008540000
H            5.30643411520000       -0.83048084560000        0.30000761790000
O           -2.36944475210000       -4.21788065010000        1.29121481000000
H           -2.51061947180000       -3.79857376770000        0.42494206050000
H           -2.68521798380000       -3.57688532600000        1.95140800140000
O           -0.93921666530000        4.07600296910000       -2.71437988020000
H           -1.53932969000000        3.59883305590000       -2.12535123670000
H           -0.16326869000000        4.29469211370000       -2.18027835320000
O           -4.21904026950000       -1.16417311270000        0.75358440740000
H           -4.19469941180000       -0.20021709630000        0.84172575270000
H           -3.89426442660000       -1.52138648740000        1.59869315250000

          :  Hamiltonian                  GFN2-xTB          :
         :: gradient norm              0.000443766368 Eh/a0 ::
         :: HOMO-LUMO gap              8.664434494907 eV    ::
         :: SCC energy              -145.270593427063 Eh    ::
         :: -> dispersion             -0.069838214824 Eh    ::
         :: repulsion energy           1.004498673258 Eh    ::

    * Orbital Energies and Occupations

         #    Occupation            Energy/Eh            Energy/eV
      -------------------------------------------------------------
         1        2.0000           -0.6869204             -18.6921
       ...           ...                  ...                  ...
       104        2.0000           -0.4253996             -11.5757
       105        2.0000           -0.4224163             -11.4945
       106        2.0000           -0.4218503             -11.4791
       107        2.0000           -0.4207632             -11.4495
       108        2.0000           -0.4204680             -11.4415
       109        2.0000           -0.4197935             -11.4232
       110        2.0000           -0.4158747             -11.3165
       111        2.0000           -0.4138039             -11.2602
       112        2.0000           -0.4121985             -11.2165
       113        2.0000           -0.4112541             -11.1908
       114        2.0000           -0.4068373             -11.0706
       115        2.0000           -0.3982003             -10.8356
       116        2.0000           -0.3636620              -9.8957 (HOMO)
       117                         -0.0452499              -1.2313 (LUMO)
       118                         -0.0158258              -0.4306
       119                         -0.0048436              -0.1318
       120                          0.0006160               0.0168
       121                          0.0289591               0.7880
       122                          0.0308389               0.8392
       123                          0.0488011               1.3279
       124                          0.0572665               1.5583
       125                          0.0639780               1.7409
       126                          0.0767160               2.0875
       127                          0.0799949               2.1768
       ...                                ...                  ...
       181                          0.3674752               9.9995
      -------------------------------------------------------------
                  HL-Gap            0.3184121 Eh            8.6644 eV

     #   Z          covCN         q      C6AA      α(0)
     1   1 H        0.925     0.053     2.289     2.366
     2   6 C        3.757    -0.151    23.467     6.907
     3   1 H        0.925     0.056     2.248     2.344
     4   1 H        0.925     0.052     2.293     2.368
     5   6 C        3.852    -0.033    21.134     6.539
     6   1 H        0.924     0.059     2.213     2.327
     7   6 C        3.737    -0.018    20.984     6.537
     8   1 H        0.924     0.051     2.308     2.376
     9   1 H        0.924     0.039     2.469     2.457
    10   6 C        3.756    -0.141    23.278     6.879
    11   1 H        0.925     0.046     2.365     2.405
    12   1 H        0.925     0.044     2.395     2.420
    13   1 H        0.925     0.047     2.360     2.403
    14   7 N        2.660    -0.380    29.830     8.112
    15   1 H        0.860     0.186     1.181     1.702
    16   1 H        0.860     0.175     1.244     1.747
    17   8 O        1.608    -0.652    26.474     6.944
    18   1 H        0.804     0.331     0.634     1.251
    19   1 H        0.804     0.320     0.665     1.281
    20   8 O        1.608    -0.623    25.751     6.849
    21   1 H        0.806     0.285     0.768     1.376
    22   1 H        0.802     0.343     0.606     1.223
    23   8 O        1.609    -0.634    26.022     6.885
    24   1 H        0.804     0.318     0.670     1.286
    25   1 H        0.804     0.313     0.682     1.297
    26   8 O        1.609    -0.626    25.806     6.856
    27   1 H        0.804     0.318     0.671     1.286
    28   1 H        0.805     0.315     0.678     1.294
    29   8 O        1.608    -0.619    25.644     6.835
    30   1 H        0.802     0.340     0.613     1.230
    31   1 H        0.806     0.282     0.777     1.384
    32   8 O        1.608    -0.618    25.621     6.832
    33   1 H        0.806     0.282     0.778     1.386
    34   1 H        0.802     0.339     0.615     1.232
    35   8 O        1.609    -0.613    25.489     6.814
    36   1 H        0.804     0.328     0.643     1.259
    37   1 H        0.805     0.305     0.706     1.320
    38   8 O        1.607    -0.630    25.915     6.871
    39   1 H        0.802     0.335     0.625     1.242
    40   1 H        0.806     0.278     0.792     1.398
    41   8 O        1.607    -0.658    26.626     6.964
    42   1 H        0.802     0.330     0.638     1.255
    43   1 H        0.804     0.317     0.673     1.289
    44   8 O        1.605    -0.633    25.999     6.882
    45   1 H        0.806     0.283     0.773     1.381
    46   1 H        0.801     0.348     0.592     1.209
    47   8 O        1.607    -0.659    26.650     6.967
    48   1 H        0.803     0.321     0.661     1.277
    49   1 H        0.803     0.327     0.646     1.263
    50   8 O        1.609    -0.641    26.184     6.906
    51   1 H        0.804     0.315     0.676     1.292
    52   1 H        0.802     0.331     0.634     1.251
    53   8 O        1.604    -0.642    26.216     6.910
    54   1 H        0.800     0.348     0.594     1.211
    55   1 H        0.806     0.279     0.789     1.395
    56   8 O        1.608    -0.640    26.167     6.904
    57   1 H        0.803     0.320     0.664     1.280
    58   1 H        0.804     0.308     0.698     1.313
    59   8 O        1.606    -0.671    26.941     7.005
    60   1 H        0.804     0.316     0.675     1.291
    61   1 H        0.802     0.337     0.620     1.237
    62   8 O        1.609    -0.634    26.018     6.884
    63   1 H        0.805     0.309     0.696     1.310
    64   1 H        0.804     0.313     0.683     1.298
    65   8 O        1.601    -0.668    26.875     6.996
    66   1 H        0.827     0.324     0.650     1.265
    67   1 H        0.804     0.313     0.683     1.298
    68   8 O        1.608    -0.620    25.660     6.837
    69   1 H        0.802     0.338     0.617     1.234
    70   1 H        0.806     0.288     0.758     1.367
    71   8 O        1.605    -0.634    26.025     6.885
    72   1 H        0.806     0.279     0.787     1.393
    73   1 H        0.800     0.344     0.604     1.221
    74   8 O        1.609    -0.611    25.444     6.808
    75   1 H        0.803     0.342     0.607     1.224
    76   1 H        0.806     0.286     0.766     1.374
    77   8 O        1.609    -0.624    25.777     6.852
    78   1 H        0.805     0.312     0.686     1.301
    79   1 H        0.804     0.314     0.680     1.296
    80   8 O        1.608    -0.615    25.557     6.823
    81   1 H        0.803     0.333     0.629     1.246
    82   1 H        0.806     0.281     0.781     1.388
    83   8 O        1.608    -0.636    26.064     6.890
    84   1 H        0.804     0.315     0.677     1.293
    85   1 H        0.804     0.318     0.669     1.285
    86   8 O        1.609    -0.622    25.713     6.844
    87   1 H        0.805     0.313     0.683     1.298
    88   1 H        0.805     0.312     0.687     1.302
    89   8 O        1.608    -0.636    26.059     6.890
    90   1 H        0.804     0.310     0.691     1.306
    91   1 H        0.804     0.321     0.661     1.277

Wiberg/Mayer (AO) data.
largest (>0.10) Wiberg bond orders for each atom

     #   Z sym  total        # sym  WBO       # sym  WBO       # sym  WBO
 ---------------------------------------------------------------------------
     1   1 H    0.997 --     2 C    0.978
     2   6 C    3.992 --     5 C    1.010     1 H    0.978     3 H    0.975
                             4 H    0.975
     3   1 H    0.997 --     2 C    0.975
     4   1 H    0.997 --     2 C    0.975
     5   6 C    3.994 --     2 C    1.010    10 C    1.009     7 C    0.995
                             6 H    0.955
     6   1 H    0.996 --     5 C    0.955
     7   6 C    3.977 --    14 N    1.009     5 C    0.995     8 H    0.967
                             9 H    0.965
     8   1 H    0.997 --     7 C    0.967
     9   1 H    0.998 --     7 C    0.965
    10   6 C    3.994 --     5 C    1.009    12 H    0.982    13 H    0.981
                            11 H    0.979
    11   1 H    0.998 --    10 C    0.979
    12   1 H    0.998 --    10 C    0.982
    13   1 H    0.998 --    10 C    0.981
    14   7 N    3.131 --     7 C    1.009    16 H    0.942    15 H    0.931
                            66 H    0.127
    15   1 H    0.965 --    14 N    0.931
    16   1 H    0.969 --    14 N    0.942
    17   8 O    1.862 --    19 H    0.842    18 H    0.837
    18   1 H    0.890 --    17 O    0.837
    19   1 H    0.898 --    17 O    0.842
    20   8 O    1.868 --    21 H    0.915    22 H    0.808
    21   1 H    0.919 --    20 O    0.915
    22   1 H    0.883 --    20 O    0.808
    23   8 O    1.848 --    25 H    0.867    24 H    0.858
    24   1 H    0.899 --    23 O    0.858
    25   1 H    0.902 --    23 O    0.867
    26   8 O    1.864 --    28 H    0.881    27 H    0.858
    27   1 H    0.899 --    26 O    0.858
    28   1 H    0.901 --    26 O    0.881
    29   8 O    1.866 --    31 H    0.917    30 H    0.819
    30   1 H    0.884 --    29 O    0.819
    31   1 H    0.920 --    29 O    0.917
    32   8 O    1.860 --    33 H    0.916    34 H    0.818
    33   1 H    0.920 --    32 O    0.916
    34   1 H    0.885 --    32 O    0.818
    35   8 O    1.863 --    37 H    0.897    36 H    0.861
    36   1 H    0.892 --    35 O    0.861
    37   1 H    0.907 --    35 O    0.897
    38   8 O    1.836 --    40 H    0.914    39 H    0.808
    39   1 H    0.888 --    38 O    0.808
    40   1 H    0.923 --    38 O    0.914
    41   8 O    1.864 --    43 H    0.848    42 H    0.817
    42   1 H    0.891 --    41 O    0.817
    43   1 H    0.900 --    41 O    0.848
    44   8 O    1.872 --    45 H    0.915    46 H    0.777
    45   1 H    0.920 --    44 O    0.915
    46   1 H    0.879 --    44 O    0.777
    47   8 O    1.844 --    48 H    0.844    49 H    0.832
    48   1 H    0.897 --    47 O    0.844
    49   1 H    0.893 --    47 O    0.832
    50   8 O    1.882 --    51 H    0.864    52 H    0.823    54 H    0.101
    51   1 H    0.901 --    50 O    0.864
    52   1 H    0.890 --    50 O    0.823
    53   8 O    1.854 --    55 H    0.916    54 H    0.771
    54   1 H    0.879 --    53 O    0.771    50 O    0.101
    55   1 H    0.922 --    53 O    0.916
    56   8 O    1.860 --    58 H    0.865    57 H    0.843
    57   1 H    0.897 --    56 O    0.843
    58   1 H    0.905 --    56 O    0.865
    59   8 O    1.843 --    60 H    0.843    61 H    0.808
    60   1 H    0.900 --    59 O    0.843
    61   1 H    0.886 --    59 O    0.808
    62   8 O    1.843 --    63 H    0.870    64 H    0.865
    63   1 H    0.905 --    62 O    0.870
    64   1 H    0.902 --    62 O    0.865
    65   8 O    1.888 --    67 H    0.855    66 H    0.762
    66   1 H    0.895 --    65 O    0.762    14 N    0.127
    67   1 H    0.902 --    65 O    0.855
    68   8 O    1.871 --    70 H    0.911    69 H    0.818
    69   1 H    0.886 --    68 O    0.818
    70   1 H    0.917 --    68 O    0.911
    71   8 O    1.859 --    72 H    0.916    73 H    0.785
    72   1 H    0.922 --    71 O    0.916
    73   1 H    0.882 --    71 O    0.785
    74   8 O    1.877 --    76 H    0.915    75 H    0.826
    75   1 H    0.883 --    74 O    0.826
    76   1 H    0.918 --    74 O    0.915
    77   8 O    1.856 --    78 H    0.877    79 H    0.863
    78   1 H    0.903 --    77 O    0.877
    79   1 H    0.901 --    77 O    0.863
    80   8 O    1.856 --    82 H    0.918    81 H    0.826
    81   1 H    0.889 --    80 O    0.826
    82   1 H    0.921 --    80 O    0.918
    83   8 O    1.869 --    85 H    0.855    84 H    0.854
    84   1 H    0.901 --    83 O    0.854
    85   1 H    0.899 --    83 O    0.855
    86   8 O    1.858 --    87 H    0.876    88 H    0.873
    87   1 H    0.902 --    86 O    0.876
    88   1 H    0.903 --    86 O    0.873
    89   8 O    1.852 --    90 H    0.864    91 H    0.855
    90   1 H    0.904 --    89 O    0.864
    91   1 H    0.897 --    89 O    0.855
 ---------------------------------------------------------------------------

molecular dipole:
                 x           y           z       tot (Debye)
 q only:        0.117      -1.115      -0.348
   full:       -0.049      -1.468      -0.685       4.119

 projected vibrational frequencies (cm⁻¹)
eigval :       -0.00    -0.00    -0.00     0.00     0.00     0.00
eigval :       22.68    32.16    34.03    36.16    37.57    42.75
eigval :       45.88    47.09    49.98    51.06    53.36    55.21
eigval :       58.02    59.68    60.45    61.05    62.60    65.20
eigval :       68.11    70.34    72.59    75.88    76.29    78.78
eigval :       83.13    83.19    84.82    86.80    89.87    92.85
eigval :       95.56    98.34   100.07   103.96   109.28   114.25
eigval :      118.96   119.77   128.85   135.12   141.25   144.02
eigval :      151.39   156.34   157.18   160.13   161.82   165.26
eigval :      169.61   172.21   180.19   186.24   191.07   192.58
eigval :      195.71   202.06   209.46   216.17   222.63   224.50
eigval :      231.39   233.72   243.25   245.49   250.01   254.88
eigval :      256.26   262.05   268.04   268.64   278.57   281.24
eigval :      282.54   287.09   291.40   296.51   302.37   304.42
eigval :      310.15   317.28   318.19   321.82   337.17   338.63
eigval :      347.95   351.73   364.33   372.14   374.75   378.08
eigval :      384.89   395.02   399.03   409.12   413.83   420.05
eigval :      423.95   430.48   433.16   445.01   456.36   459.42
eigval :      466.40   469.85   474.86   478.83   486.51   489.26
eigval :      497.72   504.40   507.49   517.57   523.59   530.90
eigval :      534.37   540.69   543.94   546.76   562.33   567.30
eigval :      569.89   574.66   583.74   587.29   591.82   596.62
eigval :      603.67   605.49   625.04   627.13   635.46   644.12
eigval :      654.23   657.44   675.89   681.30   684.62   692.07
eigval :      703.39   710.92   725.38   734.63   738.81   749.68
eigval :      755.21   765.66   775.85   779.07   791.96   801.07
eigval :      816.85   826.19   835.90   859.90   888.03   892.65
eigval :      917.70   941.83   950.61   953.77   976.07   986.91
eigval :      996.59  1038.15  1083.30  1114.47  1176.22  1185.33
eigval :     1198.41  1255.14  1306.32  1324.59  1368.08  1403.77
eigval :     1417.40  1480.79  1489.51  1495.35  1497.91  1501.57
eigval :     1504.81  1512.33  1516.03  1520.17  1521.68  1524.68
eigval :     1525.49  1527.72  1529.48  1532.10  1532.66  1533.22
eigval :     1536.70  1540.54  1543.01  1544.47  1548.69  1552.28
eigval :     1552.94  1560.58  1563.18  1566.79  1568.75  1578.63
eigval :     1580.46  1588.97  2616.12  2799.95  2885.08  2937.59
eigval :     2939.59  2992.56  2994.51  3059.15  3062.46  3065.72
eigval :     3070.46  3079.38  3085.43  3097.52  3110.21  3118.10
eigval :     3126.23  3154.13  3175.13  3186.81  3191.50  3220.54
eigval :     3239.29  3282.34  3289.76  3301.24  3346.81  3352.88
eigval :     3363.00  3378.55  3384.61  3393.75  3395.02  3407.50
eigval :     3418.44  3421.81  3425.68  3441.14  3450.95  3455.36
eigval :     3462.19  3467.75  3468.29  3472.35  3483.89  3492.37
eigval :     3501.35  3516.12  3523.93  3528.77  3612.43  3666.38
eigval :     3668.17  3671.46  3672.18  3672.78  3673.56  3675.31
eigval :     3678.21  3679.77  3684.00

   temp. (K)  partition function   enthalpy   heat capacity  entropy
                                   cal/mol     cal/K/mol   cal/K/mol   J/K/mol
 298.15  VIB  0.563E+33            42799.040    230.460    277.823
         ROT  0.345E+08              888.752      2.981     37.472
         INT  0.194E+41            43687.792    233.441    315.295
         TR   0.116E+29             1481.254      4.968     44.632
         TOT                       45169.0462   238.4094   359.9272  1505.9354

       T/K    H(0)-H(T)+PV         H(T)/Eh          T*S/Eh         G(T)/Eh
   ------------------------------------------------------------------------
    298.15    0.719815E-01    0.817945E+00    0.171013E+00    0.646932E+00
   ------------------------------------------------------------------------

         :::::::::::::::::::::::::::::::::::::::::::::::::::::
         ::                  THERMODYNAMIC                  ::
         :::::::::::::::::::::::::::::::::::::::::::::::::::::
         :: total free energy        -143.612793653038 Eh   ::
         ::.................................................::
         :: total energy             -144.259725581682 Eh   ::
         :: zero point energy           0.745963493975 Eh   ::
         :: G(RRHO) w/o ZPVE           -0.099031565331 Eh   ::
         :: G(RRHO) contrib.            0.646931928643 Eh   ::
         :::::::::::::::::::::::::::::::::::::::::::::::::::::

           -------------------------------------------------
          | TOTAL ENERGY             -144.259725581682 Eh   |
          | TOTAL ENTHALPY           -143.441780630705 Eh   |
          | TOTAL FREE ENERGY        -143.612793653038 Eh   |
          | GRADIENT NORM               0.000443768664 Eh/α |
          | HOMO-LUMO GAP               8.664434553227 eV   |
           -------------------------------------------------

 * finished run on 2022/10/12 at 01:33:02.557
