   * xtb version 6.5.1 (579679a) compiled by 'ehlert@majestix' on 2022-07-11
          program call               : xtb cluster.xyz --gfn2 --ohess

   ID    Z sym.   atoms
    1    1 H      1, 3, 4, 6, 8, 9, 11-13, 15, 16, 18, 19, 21, 22, 24, 25,
                  27, 28, 30, 31, 33, 34, 36, 37, 39, 40, 42, 43, 45, 46, 48,
                  49, 51, 52, 54, 55, 57, 58, 60, 61, 63, 64, 66, 67, 69, 70,
                  72, 73, 75, 76, 78, 79, 81, 82, 84, 85, 87, 88, 90, 91
    2    6 C      2, 5, 7, 10
    3    7 N      14
    4    8 O      17, 20, 23, 26, 29, 32, 35, 38, 41, 44, 47, 50, 53, 56, 59,
                  62, 65, 68, 71, 74, 77, 80, 83, 86, 89

          :  Hamiltonian                  GFN2-xTB          :
 * total energy  :  -144.2621401 Eh     change       -0.7827339E-10 Eh
   *** GEOMETRY OPTIMIZATION CONVERGED AFTER 1 ITERATIONS ***

 final structure:
================
91
 xtb: 6.5.1 (579679a)
H           -0.96067382130000        1.80793462270000       -0.18568635140000
C           -0.33775378670000        1.40123685720000        0.60129361900000
H            0.62829331510000        1.13543308660000        0.19134541620000
H           -0.19489185730000        2.16349304300000        1.35429455030000
C           -1.00985077930000        0.17869310000000        1.21132239860000
H           -0.36932905740000       -0.21849499670000        2.00229789360000
C           -2.33896567670000        0.59274220810000        1.84620626200000
H           -3.00511453820000        0.99591130250000        1.07693227940000
H           -2.14109729330000        1.38938631770000        2.57441563930000
C           -1.21401327070000       -0.89914248410000        0.15474230600000
H           -1.64571603380000       -1.78157866410000        0.60420281850000
H           -0.26701911490000       -1.17369909970000       -0.29349226250000
H           -1.87769877000000       -0.53392136910000       -0.61998865640000
N           -3.01721473780000       -0.55492518140000        2.45927598190000
H           -2.36865641070000       -1.02511031570000        3.08664630410000
H           -3.79530575640000       -0.22770147630000        3.02233347260000
O           -1.76252346540000        3.79406513610000       -1.20745811080000
H           -1.52772197360000        4.06124806010000       -0.27555862950000
H           -2.20360225930000        4.55422873250000       -1.58877929760000
O           -2.30191265420000        1.29561471700000       -2.45010579040000
H           -2.25070022090000        2.14847803820000       -1.99395673870000
H           -1.38859698410000        0.96432854150000       -2.50944048040000
O           -2.51802514810000       -2.82446205390000       -2.42569968130000
H           -2.45811294920000       -3.30322654490000       -1.58020843740000
H           -3.07971858930000       -2.04733282360000       -2.24783521220000
O           -0.54816900640000        3.17681559580000        3.53972279870000
H           -0.35012016170000        3.83365358980000        4.20862433780000
H            0.28882303400000        2.70385044940000        3.37317423070000
O           -2.49522471250000       -4.00868290630000        0.09591251730000
H           -3.19439213240000       -3.32463431060000        0.33844608560000
H           -2.93089941420000       -4.86117630540000        0.12659271060000
O           -0.11212269430000       -2.27919360670000       -3.22936336090000
H           -1.05717869300000       -2.43887647100000       -2.93953608800000
H           -0.08306005330000       -2.51901423440000       -4.15685057240000
O            2.76765262200000       -2.09300954210000       -2.61669259470000
H            2.95059112140000       -1.36799002190000       -3.26103429250000
H            1.87629376140000       -2.39458583420000       -2.82898298170000
O            2.94367790910000       -3.84303451650000       -0.37287856830000
H            2.09006463390000       -4.23783504220000       -0.62574718870000
H            3.21836578440000       -3.33347616810000       -1.14591398460000
O            2.81331468390000        0.13975126350000       -4.04280145330000
H            3.44401420820000        0.69540554410000       -3.54880164120000
H            1.93475673080000        0.43953428030000       -3.76727897240000
O            4.28530607280000        1.59733826000000       -2.25469415650000
H            4.58640837700000        1.08317209730000       -1.50166789900000
H            3.75811320450000        2.32761489790000       -1.89090453150000
O            1.86989460580000        1.91875468950000        2.97970406610000
H            2.47061959700000        1.78565415610000        2.21528925950000
H            1.68053762390000        1.01762814300000        3.28137996440000
O           -1.06642464020000        4.64339708200000        1.18297749370000
H           -0.09294642150000        4.74759578660000        1.17420758300000
H           -1.22627952440000        4.09676130590000        1.96787211770000
O           -4.04559823160000       -0.61730274210000       -1.83248777770000
H           -4.81818368200000       -0.48065953460000       -2.38151796070000
H           -3.42987268950000        0.12870422570000       -2.03312911790000
O            0.35322485020000        0.35550822510000       -2.60533065040000
H            0.88202599760000        0.20187961000000       -1.79458689630000
H            0.13334112890000       -0.54220280510000       -2.91641131710000
O            1.63371631690000        4.45331798280000        1.37485837640000
H            2.02946435870000        4.14980573610000        0.54352089710000
H            1.77563130950000        3.74617001090000        2.01496623010000
O            3.37656392960000        1.53215971530000        0.74941901650000
H            3.23688731190000        2.31747620810000        0.20710176760000
H            2.95167001390000        0.79677542320000        0.26496678770000
O           -0.82009343440000       -1.88994468470000        4.16791054540000
H           -0.74869316440000       -2.27687199170000        5.04110572290000
H            0.02610104590000       -1.42971251400000        3.99541500930000
O            2.72028462710000        3.61521841240000       -1.08721836800000
H            3.07834914070000        4.43638249600000       -1.42767963070000
H            1.88144052500000        3.44274557500000       -1.60823826200000
O           -0.47632299800000       -3.66605948710000        2.05111339430000
H           -1.22603847740000       -3.78335217580000        1.44940621170000
H           -0.77647417200000       -3.09828511300000        2.77960729380000
O            1.67933897980000       -2.23213177960000        1.31044052820000
H            2.28949675650000       -2.85446395650000        0.85011246540000
H            0.87769931740000       -2.76911877740000        1.49788043810000
O            1.65275561970000       -0.84798210530000        3.56708023050000
H            2.43770098330000       -1.08410766010000        4.06336581390000
H            1.73222698480000       -1.31335858520000        2.69750806240000
O            2.09417074530000       -0.42302292170000       -0.63359223680000
H            1.85757946730000       -1.01008026290000        0.11543646010000
H            2.51429818380000       -1.01643803650000       -1.29377475560000
O            0.34511725510000       -4.28077644580000       -1.18989105330000
H            0.18383159870000       -3.60768824200000       -1.86401315330000
H           -0.40651843310000       -4.25540471380000       -0.59100161750000
O            0.57659837090000        3.16150562830000       -2.47187835450000
H           -0.24450657050000        3.42723651230000       -2.01267300940000
H            0.49445498960000        2.21336983520000       -2.64382376000000
O           -4.20861641000000       -2.13335449200000        0.61745251870000
H           -3.78348913670000       -1.56121206520000        1.31276644520000
H           -4.24641406170000       -1.58019283690000       -0.17573258930000

          :  Hamiltonian                  GFN2-xTB          :
         :: gradient norm              0.000362072492 Eh/a0 ::
         :: HOMO-LUMO gap              8.666345302286 eV    ::
         :: SCC energy              -145.269192996610 Eh    ::
         :: -> dispersion             -0.069960957975 Eh    ::
         :: repulsion energy           1.000699768358 Eh    ::

    * Orbital Energies and Occupations

         #    Occupation            Energy/Eh            Energy/eV
      -------------------------------------------------------------
         1        2.0000           -0.6937477             -18.8778
       ...           ...                  ...                  ...
       104        2.0000           -0.4311800             -11.7330
       105        2.0000           -0.4302280             -11.7071
       106        2.0000           -0.4289226             -11.6716
       107        2.0000           -0.4283440             -11.6558
       108        2.0000           -0.4280292             -11.6473
       109        2.0000           -0.4244382             -11.5496
       110        2.0000           -0.4234761             -11.5234
       111        2.0000           -0.4222679             -11.4905
       112        2.0000           -0.4182062             -11.3800
       113        2.0000           -0.4109199             -11.1817
       114        2.0000           -0.4101002             -11.1594
       115        2.0000           -0.4022308             -10.9453
       116        2.0000           -0.3698565             -10.0643 (HOMO)
       117                         -0.0513742              -1.3980 (LUMO)
       118                         -0.0203323              -0.5533
       119                         -0.0132679              -0.3610
       120                          0.0021302               0.0580
       121                          0.0224294               0.6103
       122                          0.0313058               0.8519
       123                          0.0424874               1.1561
       124                          0.0472518               1.2858
       125                          0.0557128               1.5160
       126                          0.0701085               1.9077
       127                          0.0852460               2.3197
       ...                                ...                  ...
       181                          0.3641511               9.9091
      -------------------------------------------------------------
                  HL-Gap            0.3184823 Eh            8.6663 eV

     #   Z          covCN         q      C6AA      α(0)
     1   1 H        0.925     0.055     2.262     2.352
     2   6 C        3.760    -0.162    23.688     6.938
     3   1 H        0.925     0.062     2.173     2.305
     4   1 H        0.926     0.063     2.164     2.300
     5   6 C        3.851    -0.027    21.023     6.522
     6   1 H        0.924     0.048     2.346     2.395
     7   6 C        3.736    -0.002    20.707     6.494
     8   1 H        0.924     0.036     2.509     2.477
     9   1 H        0.924     0.029     2.600     2.522
    10   6 C        3.758    -0.161    23.670     6.936
    11   1 H        0.926     0.060     2.199     2.319
    12   1 H        0.925     0.059     2.209     2.324
    13   1 H        0.925     0.057     2.235     2.338
    14   7 N        2.632    -0.361    29.306     8.040
    15   1 H        0.860     0.176     1.235     1.741
    16   1 H        0.860     0.136     1.504     1.921
    17   8 O        1.605    -0.631    25.955     6.876
    18   1 H        0.800     0.346     0.597     1.214
    19   1 H        0.806     0.281     0.782     1.389
    20   8 O        1.608    -0.637    26.090     6.894
    21   1 H        0.804     0.315     0.677     1.293
    22   1 H        0.804     0.324     0.654     1.271
    23   8 O        1.610    -0.640    26.166     6.904
    24   1 H        0.804     0.322     0.658     1.275
    25   1 H        0.804     0.323     0.656     1.273
    26   8 O        1.609    -0.612    25.465     6.811
    27   1 H        0.806     0.277     0.796     1.401
    28   1 H        0.804     0.327     0.644     1.261
    29   8 O        1.603    -0.644    26.273     6.918
    30   1 H        0.800     0.344     0.604     1.221
    31   1 H        0.806     0.281     0.780     1.387
    32   8 O        1.604    -0.641    26.202     6.908
    33   1 H        0.801     0.346     0.599     1.216
    34   1 H        0.806     0.286     0.763     1.372
    35   8 O        1.607    -0.642    26.219     6.911
    36   1 H        0.802     0.331     0.636     1.253
    37   1 H        0.805     0.308     0.697     1.311
    38   8 O        1.609    -0.620    25.682     6.840
    39   1 H        0.804     0.324     0.654     1.270
    40   1 H        0.805     0.310     0.690     1.305
    41   8 O        1.608    -0.629    25.903     6.869
    42   1 H        0.804     0.323     0.656     1.272
    43   1 H        0.804     0.308     0.699     1.313
    44   8 O        1.609    -0.616    25.566     6.824
    45   1 H        0.805     0.299     0.725     1.337
    46   1 H        0.804     0.317     0.673     1.288
    47   8 O        1.607    -0.659    26.647     6.967
    48   1 H        0.803     0.324     0.654     1.270
    49   1 H        0.804     0.307     0.700     1.314
    50   8 O        1.608    -0.633    25.979     6.879
    51   1 H        0.803     0.325     0.652     1.268
    52   1 H        0.804     0.313     0.684     1.299
    53   8 O        1.607    -0.622    25.723     6.845
    54   1 H        0.806     0.282     0.777     1.384
    55   1 H        0.802     0.341     0.611     1.228
    56   8 O        1.606    -0.666    26.831     6.991
    57   1 H        0.803     0.337     0.620     1.237
    58   1 H        0.804     0.323     0.655     1.272
    59   8 O        1.609    -0.626    25.813     6.857
    60   1 H        0.804     0.310     0.691     1.305
    61   1 H        0.805     0.316     0.674     1.290
    62   8 O        1.608    -0.644    26.262     6.917
    63   1 H        0.805     0.309     0.695     1.310
    64   1 H        0.803     0.325     0.651     1.268
    65   8 O        1.609    -0.608    25.389     6.801
    66   1 H        0.806     0.279     0.788     1.394
    67   1 H        0.803     0.331     0.635     1.252
    68   8 O        1.604    -0.640    26.172     6.904
    69   1 H        0.806     0.289     0.754     1.363
    70   1 H        0.801     0.350     0.589     1.206
    71   8 O        1.609    -0.630    25.926     6.872
    72   1 H        0.804     0.308     0.698     1.313
    73   1 H        0.804     0.314     0.682     1.297
    74   8 O        1.605    -0.668    26.880     6.997
    75   1 H        0.802     0.331     0.635     1.252
    76   1 H        0.802     0.335     0.626     1.243
    77   8 O        1.607    -0.625    25.791     6.854
    78   1 H        0.806     0.284     0.770     1.378
    79   1 H        0.802     0.347     0.597     1.213
    80   8 O        1.605    -0.671    26.950     7.006
    81   1 H        0.803     0.331     0.635     1.252
    82   1 H        0.803     0.327     0.647     1.263
    83   8 O        1.610    -0.620    25.675     6.839
    84   1 H        0.805     0.312     0.686     1.301
    85   1 H        0.805     0.309     0.695     1.310
    86   8 O        1.611    -0.633    25.997     6.882
    87   1 H        0.803     0.326     0.647     1.263
    88   1 H        0.805     0.323     0.656     1.272
    89   8 O        1.607    -0.636    26.072     6.891
    90   1 H        0.804     0.318     0.669     1.285
    91   1 H        0.805     0.313     0.684     1.299

Wiberg/Mayer (AO) data.
largest (>0.10) Wiberg bond orders for each atom

     #   Z sym  total        # sym  WBO       # sym  WBO       # sym  WBO
 ---------------------------------------------------------------------------
     1   1 H    0.997 --     2 C    0.975
     2   6 C    3.990 --     5 C    1.008     1 H    0.975     3 H    0.973
                             4 H    0.972
     3   1 H    0.996 --     2 C    0.973
     4   1 H    0.996 --     2 C    0.972
     5   6 C    3.994 --    10 C    1.010     2 C    1.008     7 C    0.995
                             6 H    0.961
     6   1 H    0.997 --     5 C    0.961
     7   6 C    3.977 --    14 N    1.006     5 C    0.995     8 H    0.974
                             9 H    0.971
     8   1 H    0.998 --     7 C    0.974
     9   1 H    0.999 --     7 C    0.971
    10   6 C    3.992 --     5 C    1.010    13 H    0.975    12 H    0.974
                            11 H    0.971
    11   1 H    0.996 --    10 C    0.971
    12   1 H    0.996 --    10 C    0.974
    13   1 H    0.997 --    10 C    0.975
    14   7 N    3.094 --     7 C    1.006    16 H    0.969    15 H    0.940
    15   1 H    0.969 --    14 N    0.940
    16   1 H    0.981 --    14 N    0.969
    17   8 O    1.865 --    19 H    0.916    18 H    0.785
    18   1 H    0.880 --    17 O    0.785
    19   1 H    0.921 --    17 O    0.916
    20   8 O    1.858 --    21 H    0.864    22 H    0.849
    21   1 H    0.901 --    20 O    0.864
    22   1 H    0.895 --    20 O    0.849
    23   8 O    1.885 --    24 H    0.848    25 H    0.841    33 H    0.100
    24   1 H    0.896 --    23 O    0.848
    25   1 H    0.896 --    23 O    0.841
    26   8 O    1.840 --    27 H    0.921    28 H    0.845
    27   1 H    0.923 --    26 O    0.921
    28   1 H    0.893 --    26 O    0.845
    29   8 O    1.862 --    31 H    0.916    30 H    0.765
    30   1 H    0.882 --    29 O    0.765    89 O    0.110
    31   1 H    0.921 --    29 O    0.916
    32   8 O    1.863 --    34 H    0.913    33 H    0.773
    33   1 H    0.880 --    32 O    0.773    23 O    0.100
    34   1 H    0.918 --    32 O    0.913
    35   8 O    1.866 --    37 H    0.885    36 H    0.813
    36   1 H    0.891 --    35 O    0.813
    37   1 H    0.905 --    35 O    0.885
    38   8 O    1.875 --    40 H    0.882    39 H    0.857
    39   1 H    0.895 --    38 O    0.857
    40   1 H    0.904 --    38 O    0.882
    41   8 O    1.872 --    43 H    0.875    42 H    0.850
    42   1 H    0.896 --    41 O    0.850
    43   1 H    0.905 --    41 O    0.875
    44   8 O    1.850 --    45 H    0.904    46 H    0.854
    45   1 H    0.911 --    44 O    0.904
    46   1 H    0.900 --    44 O    0.854
    47   8 O    1.819 --    49 H    0.868    48 H    0.828
    48   1 H    0.895 --    47 O    0.828
    49   1 H    0.906 --    47 O    0.868
    50   8 O    1.878 --    52 H    0.868    51 H    0.839
    51   1 H    0.895 --    50 O    0.839
    52   1 H    0.902 --    50 O    0.868
    53   8 O    1.865 --    54 H    0.915    55 H    0.806
    54   1 H    0.920 --    53 O    0.915
    55   1 H    0.884 --    53 O    0.806
    56   8 O    1.854 --    58 H    0.838    57 H    0.828
    57   1 H    0.887 --    56 O    0.828
    58   1 H    0.895 --    56 O    0.838
    59   8 O    1.854 --    61 H    0.882    60 H    0.861
    60   1 H    0.904 --    59 O    0.861
    61   1 H    0.900 --    59 O    0.882
    62   8 O    1.852 --    63 H    0.875    64 H    0.835
    63   1 H    0.905 --    62 O    0.875
    64   1 H    0.894 --    62 O    0.835
    65   8 O    1.861 --    66 H    0.917    67 H    0.837
    66   1 H    0.922 --    65 O    0.917
    67   1 H    0.890 --    65 O    0.837
    68   8 O    1.878 --    69 H    0.910    70 H    0.772
    69   1 H    0.916 --    68 O    0.910
    70   1 H    0.878 --    68 O    0.772    86 O    0.102
    71   8 O    1.860 --    72 H    0.862    73 H    0.860
    72   1 H    0.905 --    71 O    0.862
    73   1 H    0.902 --    71 O    0.860
    74   8 O    1.880 --    76 H    0.818    75 H    0.811
    75   1 H    0.890 --    74 O    0.811
    76   1 H    0.888 --    74 O    0.818
    77   8 O    1.873 --    78 H    0.914    79 H    0.804
    78   1 H    0.919 --    77 O    0.914
    79   1 H    0.880 --    77 O    0.804
    80   8 O    1.868 --    81 H    0.822    82 H    0.820
    81   1 H    0.890 --    80 O    0.822
    82   1 H    0.893 --    80 O    0.820
    83   8 O    1.841 --    85 H    0.890    84 H    0.870
    84   1 H    0.903 --    83 O    0.870
    85   1 H    0.905 --    83 O    0.890
    86   8 O    1.891 --    88 H    0.864    87 H    0.834    70 H    0.102
    87   1 H    0.893 --    86 O    0.834
    88   1 H    0.896 --    86 O    0.864
    89   8 O    1.898 --    91 H    0.874    90 H    0.802    30 H    0.110
    90   1 H    0.899 --    89 O    0.802
    91   1 H    0.902 --    89 O    0.874
 ---------------------------------------------------------------------------

molecular dipole:
                 x           y           z       tot (Debye)
 q only:       -1.387      -0.012       0.418
   full:       -1.873       0.136       0.892       5.285

 projected vibrational frequencies (cm⁻¹)
eigval :       -0.00    -0.00    -0.00     0.00     0.00     0.00
eigval :       22.84    29.29    31.74    35.29    43.98    45.98
eigval :       48.13    50.51    52.74    55.25    57.87    59.42
eigval :       62.24    63.31    64.22    67.26    70.11    72.00
eigval :       72.57    74.35    77.70    80.22    84.42    88.81
eigval :       89.16    90.63    91.89    94.23    96.73   101.69
eigval :      106.26   108.82   113.64   117.00   121.32   126.54
eigval :      132.63   134.52   137.11   139.77   142.58   151.14
eigval :      152.45   157.13   163.85   167.06   170.02   175.19
eigval :      176.63   181.09   190.99   197.54   200.21   205.21
eigval :      208.80   217.29   220.38   223.67   228.70   232.60
eigval :      233.09   235.85   240.96   245.36   249.68   257.41
eigval :      259.72   268.58   270.15   273.94   278.14   283.45
eigval :      294.68   296.03   304.79   309.25   311.39   314.38
eigval :      318.93   323.42   333.62   338.76   348.05   358.61
eigval :      363.56   373.99   376.25   379.39   383.96   387.90
eigval :      395.84   396.83   403.13   405.51   416.56   422.01
eigval :      430.16   434.27   446.74   448.68   451.24   454.63
eigval :      464.46   465.13   468.03   471.26   476.84   484.28
eigval :      496.04   499.61   509.24   516.82   527.20   529.35
eigval :      531.43   534.05   545.64   552.28   554.95   564.62
eigval :      570.42   576.39   582.16   590.55   603.79   607.18
eigval :      609.25   624.40   625.35   631.95   636.38   646.20
eigval :      654.64   655.87   665.87   666.63   671.03   689.20
eigval :      696.94   708.93   733.13   742.10   745.96   749.08
eigval :      755.55   773.63   793.74   808.99   812.18   837.92
eigval :      853.94   859.70   879.95   894.09   909.48   913.33
eigval :      932.28   952.03   958.90   963.91   977.36   979.32
eigval :      985.79  1040.30  1089.53  1103.65  1176.11  1193.11
eigval :     1218.48  1269.45  1310.66  1338.66  1374.02  1395.36
eigval :     1411.34  1479.98  1488.96  1490.53  1491.96  1501.66
eigval :     1506.07  1510.51  1512.99  1514.95  1518.66  1519.79
eigval :     1526.81  1528.21  1531.82  1534.40  1535.69  1537.81
eigval :     1539.74  1541.40  1543.17  1545.29  1550.28  1552.06
eigval :     1553.22  1555.20  1560.95  1563.29  1564.87  1567.21
eigval :     1577.89  1590.79  2721.93  2837.53  2849.57  2907.46
eigval :     2922.43  2932.14  2951.64  2974.92  3043.03  3080.09
eigval :     3090.99  3092.05  3093.64  3097.17  3101.66  3105.80
eigval :     3127.78  3131.36  3148.66  3190.05  3197.15  3250.79
eigval :     3267.63  3276.60  3278.79  3286.34  3308.87  3322.12
eigval :     3335.11  3343.10  3349.27  3369.30  3379.90  3383.42
eigval :     3387.58  3403.01  3404.44  3412.08  3440.77  3460.13
eigval :     3460.27  3467.09  3467.94  3475.95  3496.63  3506.70
eigval :     3510.59  3537.44  3555.89  3559.17  3563.53  3607.49
eigval :     3632.38  3665.51  3665.80  3665.90  3668.21  3670.94
eigval :     3671.22  3673.84  3675.19

   temp. (K)  partition function   enthalpy   heat capacity  entropy
                                   cal/mol     cal/K/mol   cal/K/mol   J/K/mol
 298.15  VIB  0.229E+32            42092.264    230.453    270.941
         ROT  0.343E+08              888.752      2.981     37.460
         INT  0.784E+39            42981.017    233.434    308.401
         TR   0.116E+29             1481.254      4.968     44.632
         TOT                       44462.2708   238.4023   353.0336  1477.0926

       T/K    H(0)-H(T)+PV         H(T)/Eh          T*S/Eh         G(T)/Eh
   ------------------------------------------------------------------------
    298.15    0.708551E-01    0.817914E+00    0.167738E+00    0.650177E+00
   ------------------------------------------------------------------------

         :::::::::::::::::::::::::::::::::::::::::::::::::::::
         ::                  THERMODYNAMIC                  ::
         :::::::::::::::::::::::::::::::::::::::::::::::::::::
         :: total free energy        -143.611963364412 Eh   ::
         ::.................................................::
         :: total energy             -144.262140127194 Eh   ::
         :: zero point energy           0.747059283317 Eh   ::
         :: G(RRHO) w/o ZPVE           -0.096882520535 Eh   ::
         :: G(RRHO) contrib.            0.650176762782 Eh   ::
         :::::::::::::::::::::::::::::::::::::::::::::::::::::

           -------------------------------------------------
          | TOTAL ENERGY             -144.262140127194 Eh   |
          | TOTAL ENTHALPY           -143.444225705298 Eh   |
          | TOTAL FREE ENERGY        -143.611963364412 Eh   |
          | GRADIENT NORM               0.000362072023 Eh/α |
          | HOMO-LUMO GAP               8.666345228013 eV   |
           -------------------------------------------------

 * finished run on 2022/10/12 at 01:33:02.563
