   * xtb version 6.5.1 (579679a) compiled by 'ehlert@majestix' on 2022-07-11
          program call               : xtb cluster.xyz --gfn2 --ohess

   ID    Z sym.   atoms
    1    6 C      1-4
    2    1 H      5-12, 15, 16, 18, 19, 21, 22, 24, 25, 27, 28, 30, 31, 33,
                  34, 36, 37, 39, 40, 42, 43, 45, 46, 48, 49, 51, 52, 54, 55,
                  57, 58, 60, 61, 63, 64, 66, 67, 69, 70, 72, 73, 75, 76, 78,
                  79, 81, 82, 84, 85, 87, 88, 90, 91
    3    8 O      13, 17, 20, 23, 26, 29, 32, 35, 38, 41, 44, 47, 50, 53, 56,
                  59, 62, 65, 68, 71, 74, 77, 80, 83, 86, 89
    4    7 N      14

          :  Hamiltonian                  GFN2-xTB          :
 * total energy  :  -147.7392848 Eh     change       -0.1067519E-09 Eh
   *** GEOMETRY OPTIMIZATION CONVERGED AFTER 1 ITERATIONS ***

 final structure:
================
91
 xtb: 6.5.1 (579679a)
C            1.11007640760000       -0.57897580480000        0.24300206050000
C           -1.24317380170000       -0.09592471280000        0.46048650300000
C           -1.73071937490000        0.85118831810000       -0.62998679470000
C            1.54951045990000        0.61528994650000       -0.48141456430000
H            1.68903663870000       -1.44775649690000       -0.07157116370000
H           -2.06711534970000       -0.71233666090000        0.82275431370000
H           -2.32204217890000        0.31154856890000       -1.36010571120000
H            1.83433569130000        0.56323380610000       -1.51271143240000
H            1.20925082460000       -0.43018373970000        1.32180341500000
H           -0.83826842500000        0.47169381320000        1.30127595020000
H           -2.34105361290000        1.63567315510000       -0.19766292610000
H           -0.88104792060000        1.29857994830000       -1.13298476350000
O           -0.25903247090000       -1.00254876460000       -0.00872866720000
N            1.52612756400000        1.88273118240000        0.09706725840000
H            2.32966874000000        2.44922970730000       -0.15066948750000
H            1.34298638050000        1.88263507070000        1.09572123270000
O            1.09469495180000       -3.90843497470000       -0.25113883810000
H            0.18554599330000       -3.58502931960000       -0.17457615750000
H            1.56000456520000       -3.61637098810000        0.55045389450000
O           -3.18895507660000        2.08438607160000        2.16644936960000
H           -2.64393468760000        1.67285385140000        2.85004188090000
H           -2.65004891160000        2.79012581820000        1.77909934860000
O           -0.30462519530000       -1.17042855850000       -2.72892377950000
H           -0.30598421500000       -1.11147419230000       -1.74719152990000
H           -1.24051262700000       -1.23389055500000       -2.98165234650000
O           -3.03082179720000       -1.09982857910000       -3.25426540800000
H           -3.39134294200000       -1.54012374410000       -4.02441496440000
H           -3.23761544030000       -0.13555991670000       -3.36411516180000
O           -3.55237433510000        1.47206553370000       -3.47735986970000
H           -4.07393463820000        1.88999659490000       -2.79066292680000
H           -2.70654921400000        1.98608534630000       -3.52236800790000
O            1.97772031520000       -2.73291427780000       -2.53909794080000
H            1.73797088010000       -3.26347757850000       -1.75100403080000
H            1.17437942560000       -2.23522771280000       -2.75835299550000
O           -1.30584284810000       -3.04523600430000        2.59883208410000
H           -1.40081595080000       -3.17914149410000        1.62898130500000
H           -1.16794952830000       -3.91112906240000        2.98451183530000
O            4.26335458710000        1.10688085470000        1.53430441420000
H            3.54768484380000        1.04298099500000        2.21405519550000
H            5.05040141230000        1.37386427210000        2.01075778030000
O            0.23271094460000        2.47833336470000        2.71479513260000
H           -0.30399188390000        3.12743973460000        2.23513024210000
H           -0.39326808590000        1.90276621950000        3.18339721650000
O           -1.44403924670000        4.08011820500000        1.14151484360000
H           -0.99752746540000        4.01565583760000        0.27221576860000
H           -1.60159144380000        5.01155374040000        1.29938801980000
O           -3.77977627110000       -2.11706403740000       -0.77170766300000
H           -3.55268475980000       -1.73285702200000       -1.63566842800000
H           -4.00994958760000       -1.38303322090000       -0.18395017520000
O            4.36096531330000       -1.51156323610000        0.70351320700000
H            4.33992694720000       -0.59396941460000        1.02970142660000
H            4.23107999540000       -1.43765591490000       -0.26100348840000
O           -1.72835639730000       -3.59966102060000        0.01774101900000
H           -2.45646189460000       -3.00323834390000       -0.28671507950000
H           -1.97343820350000       -4.48203545510000       -0.26374584850000
O            2.60842376120000       -3.02437080760000        1.94485788610000
H            3.26056975120000       -2.43805841930000        1.47409576610000
H            3.13035177700000       -3.71973503890000        2.34637150710000
O           -0.01146345920000        3.74646818600000       -1.13699799610000
H            0.70788360300000        4.10364190670000       -1.67817597220000
H            0.41994338580000        2.96610903100000       -0.70776578820000
O           -3.28092760730000       -1.28460779390000        3.40962552440000
H           -3.73095220770000       -0.99359672440000        2.60028838390000
H           -2.66254123130000       -1.98503228700000        3.14436812120000
O            4.31698562180000        1.61837804320000       -1.30753868710000
H            4.19337372290000        0.71664149370000       -1.63958735490000
H            4.36459472600000        1.52383116730000       -0.34677285300000
O            0.84520715470000       -1.45644259440000        3.40087699830000
H            1.54402507930000       -1.99551110810000        2.99017023370000
H            0.02730710780000       -1.91030335560000        3.13610545630000
O            2.32250144370000        3.21040077180000       -2.54236540510000
H            3.12511015770000        2.78747628770000       -2.19731067680000
H            1.85801194590000        2.51439207400000       -3.02573933550000
O            2.39681776770000        0.91668262640000        3.40969724200000
H            1.72412135510000        1.60565295680000        3.30243519110000
H            1.91126306760000        0.08381978880000        3.51356589050000
O           -1.27086382020000        2.80756390630000       -3.43416378940000
H           -0.98897175760000        3.22319825000000       -2.60133578950000
H           -0.53918227780000        2.21308281630000       -3.67530686400000
O           -1.36262973680000        0.53100935340000        3.84532131090000
H           -0.59345691800000       -0.03962361010000        3.95796142840000
H           -2.12404819160000       -0.09272230510000        3.80786310600000
O           -4.43806610180000       -0.07696437040000        1.14588493870000
H           -5.36644618270000        0.05721573770000        1.34205068140000
H           -3.98117389060000        0.74985012180000        1.41929067740000
O            0.80054206440000        1.02515326480000       -3.78445745930000
H            1.11765440930000        0.75534635250000       -4.64660366250000
H            0.41272051190000        0.21788832550000       -3.36650480680000
O            3.98749961390000       -1.14143217070000       -1.98356117570000
H            4.71282117320000       -1.48909519360000       -2.50360756930000
H            3.20081040650000       -1.71201509890000       -2.20499918260000

          :  Hamiltonian                  GFN2-xTB          :
         :: gradient norm              0.000492822908 Eh/a0 ::
         :: HOMO-LUMO gap              6.131348469716 eV    ::
         :: SCC energy              -148.750067048309 Eh    ::
         :: -> dispersion             -0.073103126849 Eh    ::
         :: repulsion energy           1.004100065031 Eh    ::

    * Orbital Energies and Occupations

         #    Occupation            Energy/Eh            Energy/eV
      -------------------------------------------------------------
         1        2.0000           -0.6905560             -18.7910
       ...           ...                  ...                  ...
       107        2.0000           -0.4289730             -11.6729
       108        2.0000           -0.4257972             -11.5865
       109        2.0000           -0.4245246             -11.5519
       110        2.0000           -0.4233292             -11.5194
       111        2.0000           -0.4222436             -11.4898
       112        2.0000           -0.4220987             -11.4859
       113        2.0000           -0.4174866             -11.3604
       114        2.0000           -0.4174238             -11.3587
       115        2.0000           -0.4157347             -11.3127
       116        2.0000           -0.4126613             -11.2291
       117        2.0000           -0.4098315             -11.1521
       118        2.0000           -0.3857908             -10.4979
       119        1.0000           -0.2637863              -7.1780 (HOMO)
       120                         -0.0384634              -1.0466 (LUMO)
       121                         -0.0114331              -0.3111
       122                         -0.0053291              -0.1450
       123                          0.0008782               0.0239
       124                          0.0161812               0.4403
       125                          0.0342040               0.9307
       126                          0.0379976               1.0340
       127                          0.0448150               1.2195
       128                          0.0528858               1.4391
       129                          0.0681321               1.8540
       130                          0.0769529               2.0940
       ...                                ...                  ...
       184                          0.4181528              11.3785
      -------------------------------------------------------------
                  HL-Gap            0.2253229 Eh            6.1313 eV

     #   Z          covCN         q      C6AA      α(0)
     1   6 C        3.687     0.033    20.208     6.435
     2   6 C        3.687     0.050    19.915     6.388
     3   6 C        3.751    -0.161    23.684     6.940
     4   6 C        2.815    -0.074    29.841     8.950
     5   1 H        0.924     0.080     1.978     2.199
     6   1 H        0.924     0.060     2.202     2.320
     7   1 H        0.925     0.061     2.193     2.316
     8   1 H        0.926     0.058     2.226     2.333
     9   1 H        0.924     0.059     2.213     2.326
    10   1 H        0.924     0.052     2.294     2.368
    11   1 H        0.925     0.053     2.287     2.365
    12   1 H        0.925     0.070     2.080     2.255
    13   8 O        1.694    -0.359    20.059     6.047
    14   7 N        2.632    -0.294    27.581     7.800
    15   1 H        0.860     0.193     1.141     1.673
    16   1 H        0.860     0.199     1.111     1.651
    17   8 O        1.609    -0.635    26.031     6.886
    18   1 H        0.804     0.316     0.676     1.291
    19   1 H        0.804     0.313     0.682     1.297
    20   8 O        1.609    -0.628    25.877     6.866
    21   1 H        0.805     0.321     0.662     1.278
    22   1 H        0.804     0.316     0.674     1.289
    23   8 O        1.607    -0.653    26.488     6.946
    24   1 H        0.802     0.338     0.617     1.234
    25   1 H        0.804     0.317     0.672     1.288
    26   8 O        1.606    -0.626    25.810     6.857
    27   1 H        0.806     0.284     0.772     1.380
    28   1 H        0.801     0.342     0.609     1.226
    29   8 O        1.607    -0.623    25.734     6.847
    30   1 H        0.806     0.283     0.774     1.382
    31   1 H        0.801     0.342     0.608     1.225
    32   8 O        1.608    -0.639    26.149     6.902
    33   1 H        0.803     0.325     0.649     1.266
    34   1 H        0.804     0.317     0.673     1.289
    35   8 O        1.608    -0.619    25.641     6.834
    36   1 H        0.802     0.342     0.608     1.225
    37   1 H        0.806     0.286     0.765     1.374
    38   8 O        1.607    -0.626    25.819     6.858
    39   1 H        0.802     0.340     0.612     1.229
    40   1 H        0.806     0.283     0.775     1.382
    41   8 O        1.608    -0.647    26.337     6.926
    42   1 H        0.804     0.312     0.685     1.300
    43   1 H        0.804     0.319     0.667     1.283
    44   8 O        1.609    -0.616    25.561     6.824
    45   1 H        0.803     0.341     0.610     1.227
    46   1 H        0.806     0.285     0.768     1.376
    47   8 O        1.609    -0.626    25.823     6.858
    48   1 H        0.804     0.318     0.670     1.286
    49   1 H        0.804     0.317     0.672     1.287
    50   8 O        1.608    -0.646    26.325     6.925
    51   1 H        0.804     0.316     0.675     1.290
    52   1 H        0.803     0.320     0.665     1.281
    53   8 O        1.607    -0.622    25.726     6.846
    54   1 H        0.802     0.342     0.608     1.225
    55   1 H        0.806     0.286     0.764     1.373
    56   8 O        1.606    -0.629    25.901     6.869
    57   1 H        0.801     0.342     0.607     1.225
    58   1 H        0.806     0.280     0.784     1.391
    59   8 O        1.606    -0.646    26.317     6.924
    60   1 H        0.804     0.319     0.666     1.282
    61   1 H        0.803     0.322     0.658     1.275
    62   8 O        1.608    -0.632    25.960     6.877
    63   1 H        0.804     0.311     0.690     1.304
    64   1 H        0.804     0.315     0.678     1.293
    65   8 O        1.609    -0.630    25.906     6.870
    66   1 H        0.804     0.313     0.683     1.298
    67   1 H        0.805     0.307     0.700     1.315
    68   8 O        1.608    -0.657    26.584     6.959
    69   1 H        0.804     0.315     0.678     1.293
    70   1 H        0.804     0.316     0.674     1.289
    71   8 O        1.609    -0.633    25.999     6.882
    72   1 H        0.804     0.310     0.691     1.306
    73   1 H        0.805     0.304     0.709     1.323
    74   8 O        1.609    -0.629    25.894     6.868
    75   1 H        0.804     0.322     0.657     1.273
    76   1 H        0.804     0.322     0.657     1.273
    77   8 O        1.608    -0.640    26.155     6.902
    78   1 H        0.804     0.316     0.675     1.291
    79   1 H        0.804     0.318     0.670     1.286
    80   8 O        1.607    -0.656    26.578     6.958
    81   1 H        0.805     0.310     0.692     1.307
    82   1 H        0.802     0.328     0.643     1.260
    83   8 O        1.608    -0.622    25.714     6.844
    84   1 H        0.806     0.284     0.770     1.378
    85   1 H        0.802     0.341     0.610     1.227
    86   8 O        1.607    -0.626    25.830     6.859
    87   1 H        0.806     0.280     0.783     1.390
    88   1 H        0.802     0.339     0.616     1.233
    89   8 O        1.605    -0.632    25.964     6.877
    90   1 H        0.806     0.280     0.784     1.391
    91   1 H        0.801     0.341     0.609     1.226

Wiberg/Mayer (AO) data.
largest (>0.10) Wiberg bond orders for each atom

     #   Z sym  total        # sym  WBO       # sym  WBO       # sym  WBO
 ---------------------------------------------------------------------------
     1   6 C    3.933 --     4 C    1.067     9 H    0.951     5 H    0.942
                            13 O    0.910
     2   6 C    3.944 --     3 C    1.012    13 O    0.973    10 H    0.962
                             6 H    0.959
     3   6 C    3.988 --     2 C    1.012    11 H    0.978     7 H    0.976
                            12 H    0.971
     4   6 C    3.230 --    14 N    1.156     1 C    1.067     8 H    0.960
     5   1 H    0.977 --     1 C    0.942
     6   1 H    0.994 --     2 C    0.959
     7   1 H    0.996 --     3 C    0.976
     8   1 H    0.996 --     4 C    0.960
     9   1 H    0.993 --     1 C    0.951
    10   1 H    0.996 --     2 C    0.962
    11   1 H    0.997 --     3 C    0.978
    12   1 H    0.995 --     3 C    0.971
    13   8 O    2.054 --     2 C    0.973     1 C    0.910
    14   7 N    3.154 --     4 C    1.156    15 H    0.921    16 H    0.918
    15   1 H    0.944 --    14 N    0.921
    16   1 H    0.958 --    14 N    0.918
    17   8 O    1.852 --    18 H    0.872    19 H    0.858
    18   1 H    0.900 --    17 O    0.872
    19   1 H    0.902 --    17 O    0.858
    20   8 O    1.853 --    21 H    0.874    22 H    0.861
    21   1 H    0.897 --    20 O    0.874
    22   1 H    0.900 --    20 O    0.861
    23   8 O    1.878 --    25 H    0.850    24 H    0.820
    24   1 H    0.885 --    23 O    0.820
    25   1 H    0.899 --    23 O    0.850
    26   8 O    1.872 --    27 H    0.914    28 H    0.797
    27   1 H    0.919 --    26 O    0.914
    28   1 H    0.883 --    26 O    0.797
    29   8 O    1.872 --    30 H    0.915    31 H    0.803
    30   1 H    0.920 --    29 O    0.915
    31   1 H    0.883 --    29 O    0.803
    32   8 O    1.879 --    34 H    0.861    33 H    0.836
    33   1 H    0.894 --    32 O    0.836
    34   1 H    0.900 --    32 O    0.861
    35   8 O    1.873 --    37 H    0.914    36 H    0.815
    36   1 H    0.883 --    35 O    0.815
    37   1 H    0.918 --    35 O    0.914
    38   8 O    1.862 --    40 H    0.917    39 H    0.803
    39   1 H    0.884 --    38 O    0.803
    40   1 H    0.920 --    38 O    0.917
    41   8 O    1.829 --    43 H    0.856    42 H    0.856
    42   1 H    0.902 --    41 O    0.856
    43   1 H    0.898 --    41 O    0.856
    44   8 O    1.863 --    46 H    0.914    45 H    0.828
    45   1 H    0.884 --    44 O    0.828
    46   1 H    0.919 --    44 O    0.914
    47   8 O    1.877 --    49 H    0.868    48 H    0.855
    48   1 H    0.899 --    47 O    0.855
    49   1 H    0.899 --    47 O    0.868
    50   8 O    1.868 --    51 H    0.847    52 H    0.841
    51   1 H    0.900 --    50 O    0.847
    52   1 H    0.898 --    50 O    0.841
    53   8 O    1.875 --    55 H    0.913    54 H    0.800
    54   1 H    0.883 --    53 O    0.800
    55   1 H    0.918 --    53 O    0.913
    56   8 O    1.867 --    58 H    0.917    57 H    0.792
    57   1 H    0.883 --    56 O    0.792
    58   1 H    0.921 --    56 O    0.917
    59   8 O    1.858 --    60 H    0.868    61 H    0.809
    60   1 H    0.898 --    59 O    0.868
    61   1 H    0.893 --    59 O    0.809
    62   8 O    1.868 --    63 H    0.862    64 H    0.859
    63   1 H    0.903 --    62 O    0.862
    64   1 H    0.901 --    62 O    0.859
    65   8 O    1.834 --    67 H    0.877    66 H    0.871
    66   1 H    0.902 --    65 O    0.871
    67   1 H    0.906 --    65 O    0.877
    68   8 O    1.812 --    69 H    0.853    70 H    0.853
    69   1 H    0.901 --    68 O    0.853
    70   1 H    0.900 --    68 O    0.853
    71   8 O    1.820 --    73 H    0.885    72 H    0.868
    72   1 H    0.904 --    71 O    0.868
    73   1 H    0.908 --    71 O    0.885
    74   8 O    1.870 --    75 H    0.861    76 H    0.861
    75   1 H    0.896 --    74 O    0.861
    76   1 H    0.896 --    74 O    0.861
    77   8 O    1.863 --    78 H    0.853    79 H    0.852
    78   1 H    0.900 --    77 O    0.853
    79   1 H    0.899 --    77 O    0.852
    80   8 O    1.818 --    81 H    0.884    82 H    0.814
    81   1 H    0.904 --    80 O    0.884
    82   1 H    0.892 --    80 O    0.814
    83   8 O    1.859 --    84 H    0.915    85 H    0.819
    84   1 H    0.919 --    83 O    0.915
    85   1 H    0.884 --    83 O    0.819
    86   8 O    1.855 --    87 H    0.917    88 H    0.807
    87   1 H    0.921 --    86 O    0.917
    88   1 H    0.885 --    86 O    0.807
    89   8 O    1.862 --    90 H    0.918    91 H    0.786
    90   1 H    0.922 --    89 O    0.918
    91   1 H    0.883 --    89 O    0.786
 ---------------------------------------------------------------------------

molecular dipole:
                 x           y           z       tot (Debye)
 q only:       -0.926      -0.300      -0.112
   full:       -1.014      -0.768      -0.092       3.241

 projected vibrational frequencies (cm⁻¹)
eigval :       -0.00    -0.00    -0.00    -0.00     0.00     0.00
eigval :       28.37    28.90    33.92    36.32    37.69    41.05
eigval :       46.42    46.80    51.73    54.11    56.14    59.10
eigval :       59.40    60.70    63.62    64.81    66.07    68.22
eigval :       69.92    71.63    73.08    76.04    76.86    77.88
eigval :       80.50    81.89    87.07    89.79    91.16    97.06
eigval :       97.95    99.61   105.44   108.77   110.15   119.42
eigval :      123.48   128.45   131.16   136.39   138.88   140.22
eigval :      146.92   149.94   151.24   154.06   156.27   162.85
eigval :      168.84   174.70   177.67   179.53   184.88   190.30
eigval :      193.67   197.57   205.09   210.02   213.37   216.47
eigval :      219.45   221.46   225.71   228.72   232.41   241.93
eigval :      246.20   249.90   253.48   259.03   263.02   265.26
eigval :      272.33   275.16   282.80   287.76   296.02   299.34
eigval :      302.04   314.87   318.24   320.67   324.47   330.00
eigval :      331.28   338.76   346.55   351.82   360.36   366.98
eigval :      372.32   375.84   394.56   400.54   405.38   410.09
eigval :      433.22   435.62   444.06   446.11   450.33   451.52
eigval :      457.89   458.68   473.70   476.81   481.39   485.11
eigval :      490.24   493.01   499.93   510.27   512.45   517.77
eigval :      524.53   527.57   532.12   537.80   543.06   550.10
eigval :      552.91   562.50   568.06   574.57   578.08   578.35
eigval :      582.93   590.61   595.28   604.23   615.01   618.60
eigval :      625.50   631.80   637.09   640.36   649.06   655.18
eigval :      670.04   674.87   678.60   685.80   691.31   705.55
eigval :      715.96   732.88   742.06   766.34   774.63   782.20
eigval :      794.49   799.65   810.34   819.17   834.38   846.33
eigval :      850.83   862.75   873.45   884.66   902.74   920.37
eigval :      931.11   937.37   962.34  1000.35  1085.59  1094.90
eigval :     1128.37  1168.40  1231.19  1244.18  1271.40  1301.28
eigval :     1335.73  1384.90  1398.82  1429.42  1458.25  1476.54
eigval :     1477.25  1485.69  1513.09  1516.34  1517.69  1520.12
eigval :     1522.98  1524.96  1526.95  1528.84  1530.05  1532.06
eigval :     1535.36  1537.41  1541.61  1543.35  1543.96  1547.16
eigval :     1549.19  1554.11  1556.00  1559.72  1565.14  1574.37
eigval :     1581.89  1586.76  1604.26  2917.40  2947.32  2964.73
eigval :     2966.45  2972.47  2981.59  2989.60  3011.41  3051.15
eigval :     3065.69  3075.32  3077.57  3085.06  3091.58  3098.56
eigval :     3132.92  3170.88  3173.68  3182.89  3192.60  3246.75
eigval :     3259.03  3290.46  3341.78  3346.13  3346.56  3374.47
eigval :     3384.25  3388.64  3391.31  3401.71  3404.86  3409.93
eigval :     3415.49  3416.44  3422.79  3437.51  3444.88  3458.52
eigval :     3461.77  3464.15  3469.21  3482.46  3488.93  3493.70
eigval :     3494.95  3520.65  3526.31  3530.36  3568.49  3666.25
eigval :     3666.73  3667.10  3670.19  3671.52  3673.21  3675.62
eigval :     3675.97  3676.96  3678.28

   temp. (K)  partition function   enthalpy   heat capacity  entropy
                                   cal/mol     cal/K/mol   cal/K/mol   J/K/mol
 298.15  VIB  0.856E+33            43569.438    235.697    282.017
         ROT  0.344E+08              888.752      2.981     37.467
         INT  0.295E+41            44458.191    238.677    319.484
         TR   0.121E+29             1481.254      4.968     44.716
         TOT                       45939.4447   243.6456   364.2004  1523.8143

       T/K    H(0)-H(T)+PV         H(T)/Eh          T*S/Eh         G(T)/Eh
   ------------------------------------------------------------------------
    298.15    0.732092E-01    0.808868E+00    0.173043E+00    0.635824E+00
   ------------------------------------------------------------------------

         :::::::::::::::::::::::::::::::::::::::::::::::::::::
         ::                  THERMODYNAMIC                  ::
         :::::::::::::::::::::::::::::::::::::::::::::::::::::
         :: total free energy        -147.103460327314 Eh   ::
         ::.................................................::
         :: total energy             -147.739284770711 Eh   ::
         :: zero point energy           0.735658619644 Eh   ::
         :: G(RRHO) w/o ZPVE           -0.099834176247 Eh   ::
         :: G(RRHO) contrib.            0.635824443397 Eh   ::
         :::::::::::::::::::::::::::::::::::::::::::::::::::::

           -------------------------------------------------
          | TOTAL ENERGY             -147.739284770711 Eh   |
          | TOTAL ENTHALPY           -146.930416985901 Eh   |
          | TOTAL FREE ENERGY        -147.103460327314 Eh   |
          | GRADIENT NORM               0.000492822326 Eh/α |
          | HOMO-LUMO GAP               6.131348679083 eV   |
           -------------------------------------------------

 * finished run on 2022/10/12 at 03:16:08.967
