   * xtb version 6.5.1 (579679a) compiled by 'ehlert@majestix' on 2022-07-11
          program call               : xtb cluster.xyz --gfn2 --ohess

   ID    Z sym.   atoms
    1    6 C      1-4
    2    1 H      5-12, 15, 16, 18, 19, 21, 22, 24, 25, 27, 28, 30, 31, 33,
                  34, 36, 37, 39, 40, 42, 43, 45, 46, 48, 49, 51, 52, 54, 55,
                  57, 58, 60, 61, 63, 64, 66, 67, 69, 70, 72, 73, 75, 76, 78,
                  79, 81, 82, 84, 85, 87, 88, 90, 91
    3    8 O      13, 17, 20, 23, 26, 29, 32, 35, 38, 41, 44, 47, 50, 53, 56,
                  59, 62, 65, 68, 71, 74, 77, 80, 83, 86, 89
    4    7 N      14

          :  Hamiltonian                  GFN2-xTB          :
 * total energy  :  -147.7404815 Eh     change       -0.6980372E-10 Eh
   *** GEOMETRY OPTIMIZATION CONVERGED AFTER 1 ITERATIONS ***

 final structure:
================
91
 xtb: 6.5.1 (579679a)
C            0.53032039000000        0.02200687850000        0.68215277100000
C           -1.83824870330000        0.55221798290000        0.55666330360000
C           -2.04248964770000        1.38699333600000       -0.69799998930000
C            1.07426124380000        0.98270114710000       -0.29086154750000
H            1.09949680400000       -0.91814943890000        0.68287814230000
H           -2.74787186350000       -0.00340297630000        0.79075095480000
H           -2.42673551210000        0.77379961740000       -1.50589740650000
H            1.16423152840000        0.72538296220000       -1.32791612590000
H            0.55739058410000        0.45958561050000        1.68411728980000
H           -1.58813470280000        1.19683612430000        1.40281923980000
H           -2.76391827030000        2.17221173430000       -0.49432315940000
H           -1.10238114270000        1.83977978380000       -1.00061271870000
O           -0.81829443970000       -0.43457111660000        0.41402415560000
N            1.72107694450000        2.13288832910000        0.15950250950000
H            2.44723297500000        2.43779364140000       -0.47941061080000
H            2.07965569290000        2.03096940140000        1.11083626120000
O            0.83709460320000       -4.78379059100000       -0.08184422910000
H           -0.13403872390000       -4.63263972740000        0.06871212370000
H            0.94131763140000       -5.72899232690000       -0.19029368670000
O           -4.32268876360000       -1.23762634280000        1.88461676040000
H           -5.18518257680000       -1.34964638510000        2.28522169530000
H           -3.68251978320000       -1.19668833510000        2.63860550420000
O           -0.43971752760000       -1.36808684910000       -2.14305622430000
H           -0.62575360870000       -0.96582244020000       -1.27294753540000
H           -1.31154394110000       -1.73321394880000       -2.45516429430000
O           -2.84723002510000       -2.08318306530000       -2.82222919680000
H           -3.22978402410000       -1.22459510650000       -3.09059708630000
H           -3.23773644550000       -2.29740408250000       -1.96018750120000
O           -1.63856311400000        2.00863385090000       -4.03451380160000
H           -0.85391263180000        1.43837601920000       -4.06862895370000
H           -1.42800754540000        2.69411890860000       -3.37886302180000
O            1.80761484140000       -2.76013928890000       -1.66615848010000
H            1.52000219900000       -3.57005362060000       -1.20997380220000
H            0.97683182810000       -2.27407899890000       -1.85422519100000
O           -0.84218437330000       -2.48501512400000        2.28013022080000
H           -0.91832615010000       -1.77197225130000        1.62019874810000
H            0.10368707920000       -2.72853413700000        2.30253558920000
O            4.44318799860000        0.71542002570000        0.64993952760000
H            4.05528106820000        1.09250448430000        1.45046436910000
H            4.04644289580000       -0.16440539200000        0.56224774710000
O            1.14861285210000        3.35299803630000        4.13267319600000
H            1.55199223880000        4.21954561700000        4.07330636800000
H            0.34773617180000        3.38020115680000        3.57423558350000
O           -1.13867828430000        3.24264763360000        2.60649746080000
H           -0.78559010700000        3.57750993520000        1.73350502600000
H           -1.89017359070000        3.79590376460000        2.82066543340000
O           -3.80571845340000       -2.76678425820000       -0.28783611250000
H           -3.92191961950000       -2.16231419920000        0.47760841420000
H           -4.60433412950000       -3.29389493590000       -0.33688441450000
O            3.43260474580000       -1.88608156180000        0.24090594830000
H            2.85099696350000       -2.11375031480000       -0.52609643790000
H            4.28720951290000       -2.27771959970000        0.05388482850000
O           -1.68163009960000       -4.37202063800000        0.54690659470000
H           -1.48900885490000       -3.80192517370000        1.31867326830000
H           -2.35411187870000       -3.88292479650000        0.04746834150000
O            1.76864490960000       -3.16476377260000        1.98770118640000
H            1.52202608060000       -3.87784805060000        1.37402469490000
H            2.43742338680000       -2.64525631800000        1.50236391820000
O           -0.06867317700000        4.14926224420000        0.41182316110000
H           -0.46418004500000        4.14820066970000       -0.47478188810000
H            0.65979180920000        3.48521821700000        0.34225295350000
O           -2.58533020470000       -1.18482842450000        3.89933251470000
H           -2.04702891220000       -0.38982027910000        4.02796419470000
H           -1.97191494940000       -1.83414074740000        3.51338402440000
O            3.85683635580000        1.63481610770000       -1.87681651950000
H            3.77390018370000        0.79176147870000       -2.35419485390000
H            4.21413462950000        1.39448448740000       -1.00173980370000
O            1.71262363620000       -0.84284325470000        3.78225869750000
H            1.77897215410000       -1.71267817280000        3.37405863550000
H            0.77594167360000       -0.61042275420000        3.81803704680000
O            1.70908373810000        2.70804460140000       -3.19091697640000
H            2.53082643430000        2.47236259830000       -2.72160904630000
H            1.40819922400000        1.89321695490000       -3.61004955110000
O            2.74383489550000        1.50418200830000        2.79436379140000
H            2.30407058920000        2.14908280260000        3.37265069070000
H            2.51703591420000        0.63137489680000        3.16472731850000
O           -0.49079221930000        3.90407724250000       -2.32630368860000
H            0.37225369550000        3.47996716800000       -2.56206275690000
H           -0.48631922180000        4.75226352560000       -2.77195653580000
O           -0.63583686100000        0.84552819670000        3.99697227520000
H           -0.87924422010000        1.60526057890000        3.44447595490000
H           -0.10375959500000        1.21228018300000        4.70818709570000
O           -3.71684460850000        0.39653090960000       -3.53326500490000
H           -2.97499917440000        1.01946254180000       -3.71474873630000
H           -4.33344002060000        0.50226166240000       -4.25740228140000
O            0.50749998780000        0.18371515100000       -4.02278379110000
H            0.12455520050000       -0.37550818430000       -3.29066529090000
H            0.34229974960000       -0.29399538080000       -4.83714398310000
O            3.08987323750000       -0.70137928360000       -3.18447828300000
H            2.27616920780000       -0.34824557860000       -3.57229786650000
H            2.83231335250000       -1.51381302640000       -2.73293597610000

          :  Hamiltonian                  GFN2-xTB          :
         :: gradient norm              0.000273615147 Eh/a0 ::
         :: HOMO-LUMO gap              6.141456734111 eV    ::
         :: SCC energy              -148.743949293447 Eh    ::
         :: -> dispersion             -0.070042623463 Eh    ::
         :: repulsion energy           0.997160853362 Eh    ::

    * Orbital Energies and Occupations

         #    Occupation            Energy/Eh            Energy/eV
      -------------------------------------------------------------
         1        2.0000           -0.7005759             -19.0636
       ...           ...                  ...                  ...
       107        2.0000           -0.4286965             -11.6654
       108        2.0000           -0.4282930             -11.6544
       109        2.0000           -0.4276967             -11.6382
       110        2.0000           -0.4274901             -11.6326
       111        2.0000           -0.4262998             -11.6002
       112        2.0000           -0.4257641             -11.5856
       113        2.0000           -0.4240717             -11.5396
       114        2.0000           -0.4192215             -11.4076
       115        2.0000           -0.4168780             -11.3438
       116        2.0000           -0.4113981             -11.1947
       117        2.0000           -0.4065410             -11.0625
       118        2.0000           -0.4010293             -10.9126
       119        1.0000           -0.2631172              -7.1598 (HOMO)
       120                         -0.0374228              -1.0183 (LUMO)
       121                         -0.0203608              -0.5540
       122                         -0.0172745              -0.4701
       123                         -0.0071604              -0.1948
       124                          0.0124569               0.3390
       125                          0.0363402               0.9889
       126                          0.0433582               1.1798
       127                          0.0476650               1.2970
       128                          0.0520210               1.4156
       129                          0.0637721               1.7353
       130                          0.0786301               2.1396
       ...                                ...                  ...
       184                          0.4107120              11.1760
      -------------------------------------------------------------
                  HL-Gap            0.2256944 Eh            6.1415 eV

     #   Z          covCN         q      C6AA      α(0)
     1   6 C        3.684     0.040    20.092     6.418
     2   6 C        3.683     0.050    19.928     6.392
     3   6 C        3.751    -0.152    23.497     6.913
     4   6 C        2.814    -0.076    29.881     8.956
     5   1 H        0.923     0.071     2.076     2.253
     6   1 H        0.924     0.069     2.099     2.266
     7   1 H        0.925     0.071     2.079     2.255
     8   1 H        0.926     0.048     2.346     2.395
     9   1 H        0.924     0.063     2.159     2.298
    10   1 H        0.924     0.048     2.343     2.394
    11   1 H        0.925     0.042     2.417     2.431
    12   1 H        0.925     0.074     2.040     2.233
    13   8 O        1.694    -0.368    20.216     6.070
    14   7 N        2.633    -0.308    27.923     7.848
    15   1 H        0.860     0.199     1.113     1.653
    16   1 H        0.860     0.208     1.066     1.617
    17   8 O        1.606    -0.629    25.891     6.867
    18   1 H        0.801     0.344     0.602     1.219
    19   1 H        0.806     0.280     0.784     1.391
    20   8 O        1.607    -0.627    25.833     6.860
    21   1 H        0.806     0.276     0.798     1.403
    22   1 H        0.801     0.337     0.620     1.237
    23   8 O        1.605    -0.667    26.840     6.992
    24   1 H        0.803     0.332     0.633     1.250
    25   1 H        0.801     0.338     0.618     1.235
    26   8 O        1.609    -0.631    25.930     6.873
    27   1 H        0.803     0.323     0.655     1.271
    28   1 H        0.804     0.315     0.677     1.293
    29   8 O        1.608    -0.636    26.058     6.890
    30   1 H        0.804     0.312     0.686     1.301
    31   1 H        0.804     0.317     0.673     1.289
    32   8 O        1.607    -0.656    26.575     6.958
    33   1 H        0.804     0.320     0.663     1.279
    34   1 H        0.803     0.331     0.636     1.253
    35   8 O        1.607    -0.652    26.463     6.943
    36   1 H        0.804     0.325     0.650     1.266
    37   1 H        0.803     0.327     0.644     1.261
    38   8 O        1.609    -0.629    25.890     6.867
    39   1 H        0.805     0.312     0.685     1.300
    40   1 H        0.804     0.310     0.693     1.308
    41   8 O        1.609    -0.613    25.496     6.815
    42   1 H        0.806     0.281     0.780     1.387
    43   1 H        0.803     0.325     0.650     1.266
    44   8 O        1.605    -0.637    26.102     6.895
    45   1 H        0.801     0.347     0.596     1.213
    46   1 H        0.806     0.281     0.782     1.389
    47   8 O        1.608    -0.613    25.493     6.814
    48   1 H        0.803     0.339     0.614     1.231
    49   1 H        0.806     0.284     0.772     1.380
    50   8 O        1.607    -0.626    25.830     6.859
    51   1 H        0.802     0.340     0.613     1.230
    52   1 H        0.806     0.290     0.752     1.362
    53   8 O        1.608    -0.642    26.217     6.910
    54   1 H        0.803     0.322     0.659     1.275
    55   1 H        0.804     0.314     0.681     1.296
    56   8 O        1.607    -0.651    26.440     6.940
    57   1 H        0.804     0.318     0.670     1.286
    58   1 H        0.803     0.321     0.661     1.277
    59   8 O        1.607    -0.641    26.184     6.906
    60   1 H        0.804     0.313     0.682     1.297
    61   1 H        0.804     0.313     0.684     1.300
    62   8 O        1.609    -0.627    25.849     6.862
    63   1 H        0.804     0.314     0.682     1.297
    64   1 H        0.804     0.321     0.660     1.276
    65   8 O        1.608    -0.649    26.380     6.932
    66   1 H        0.804     0.314     0.682     1.297
    67   1 H        0.804     0.319     0.668     1.284
    68   8 O        1.610    -0.618    25.625     6.832
    69   1 H        0.805     0.314     0.681     1.297
    70   1 H        0.805     0.312     0.685     1.300
    71   8 O        1.609    -0.631    25.947     6.875
    72   1 H        0.804     0.332     0.633     1.250
    73   1 H        0.805     0.309     0.695     1.309
    74   8 O        1.608    -0.645    26.301     6.922
    75   1 H        0.804     0.309     0.694     1.308
    76   1 H        0.804     0.320     0.664     1.280
    77   8 O        1.607    -0.623    25.740     6.847
    78   1 H        0.802     0.344     0.603     1.220
    79   1 H        0.806     0.281     0.780     1.387
    80   8 O        1.609    -0.617    25.594     6.828
    81   1 H        0.804     0.324     0.654     1.270
    82   1 H        0.805     0.304     0.708     1.322
    83   8 O        1.608    -0.620    25.668     6.838
    84   1 H        0.802     0.333     0.631     1.248
    85   1 H        0.806     0.275     0.802     1.407
    86   8 O        1.605    -0.639    26.140     6.900
    87   1 H        0.801     0.348     0.595     1.212
    88   1 H        0.806     0.288     0.757     1.367
    89   8 O        1.609    -0.626    25.821     6.858
    90   1 H        0.804     0.306     0.704     1.318
    91   1 H        0.805     0.311     0.690     1.304

Wiberg/Mayer (AO) data.
largest (>0.10) Wiberg bond orders for each atom

     #   Z sym  total        # sym  WBO       # sym  WBO       # sym  WBO
 ---------------------------------------------------------------------------
     1   6 C    3.926 --     4 C    1.057     9 H    0.956     5 H    0.931
                            13 O    0.922
     2   6 C    3.936 --     3 C    1.015    10 H    0.962     6 H    0.961
                            13 O    0.957
     3   6 C    3.981 --     2 C    1.015    11 H    0.983     7 H    0.977
                            12 H    0.968
     4   6 C    3.226 --    14 N    1.157     1 C    1.057     8 H    0.961
     5   1 H    0.960 --     1 C    0.931
     6   1 H    0.994 --     2 C    0.961
     7   1 H    0.995 --     3 C    0.977
     8   1 H    0.994 --     4 C    0.961
     9   1 H    0.995 --     1 C    0.956
    10   1 H    0.997 --     2 C    0.962
    11   1 H    0.997 --     3 C    0.983
    12   1 H    0.994 --     3 C    0.968
    13   8 O    2.095 --     2 C    0.957     1 C    0.922
    14   7 N    3.147 --     4 C    1.157    15 H    0.921    16 H    0.891
    15   1 H    0.951 --    14 N    0.921
    16   1 H    0.944 --    14 N    0.891
    17   8 O    1.863 --    19 H    0.915    18 H    0.795
    18   1 H    0.881 --    17 O    0.795
    19   1 H    0.921 --    17 O    0.915
    20   8 O    1.847 --    21 H    0.918    22 H    0.804
    21   1 H    0.924 --    20 O    0.918
    22   1 H    0.886 --    20 O    0.804
    23   8 O    1.904 --    24 H    0.833    25 H    0.784
    24   1 H    0.890 --    23 O    0.833
    25   1 H    0.886 --    23 O    0.784
    26   8 O    1.892 --    28 H    0.863    27 H    0.842
    27   1 H    0.895 --    26 O    0.842
    28   1 H    0.901 --    26 O    0.863
    29   8 O    1.861 --    30 H    0.860    31 H    0.857
    30   1 H    0.903 --    29 O    0.860
    31   1 H    0.900 --    29 O    0.857
    32   8 O    1.863 --    33 H    0.848    34 H    0.825
    33   1 H    0.897 --    32 O    0.848
    34   1 H    0.891 --    32 O    0.825
    35   8 O    1.875 --    36 H    0.849    37 H    0.831
    36   1 H    0.894 --    35 O    0.849
    37   1 H    0.893 --    35 O    0.831
    38   8 O    1.843 --    39 H    0.874    40 H    0.869
    39   1 H    0.902 --    38 O    0.874
    40   1 H    0.904 --    38 O    0.869
    41   8 O    1.850 --    42 H    0.919    43 H    0.841
    42   1 H    0.921 --    41 O    0.919
    43   1 H    0.894 --    41 O    0.841
    44   8 O    1.859 --    46 H    0.915    45 H    0.778
    45   1 H    0.880 --    44 O    0.778
    46   1 H    0.921 --    44 O    0.915
    47   8 O    1.872 --    49 H    0.917    48 H    0.823
    48   1 H    0.885 --    47 O    0.823
    49   1 H    0.920 --    47 O    0.917
    50   8 O    1.875 --    52 H    0.912    51 H    0.803
    51   1 H    0.884 --    50 O    0.803
    52   1 H    0.916 --    50 O    0.912
    53   8 O    1.866 --    55 H    0.860    54 H    0.839
    54   1 H    0.896 --    53 O    0.839
    55   1 H    0.901 --    53 O    0.860
    56   8 O    1.842 --    57 H    0.855    58 H    0.841
    57   1 H    0.899 --    56 O    0.855
    58   1 H    0.897 --    56 O    0.841
    59   8 O    1.868 --    60 H    0.858    61 H    0.818
    60   1 H    0.902 --    59 O    0.858
    61   1 H    0.899 --    59 O    0.818
    62   8 O    1.875 --    63 H    0.868    64 H    0.855
    63   1 H    0.902 --    62 O    0.868
    64   1 H    0.897 --    62 O    0.855
    65   8 O    1.834 --    66 H    0.862    67 H    0.844
    66   1 H    0.902 --    65 O    0.862
    67   1 H    0.898 --    65 O    0.844
    68   8 O    1.850 --    69 H    0.880    70 H    0.879
    69   1 H    0.902 --    68 O    0.880
    70   1 H    0.902 --    68 O    0.879
    71   8 O    1.862 --    73 H    0.882    72 H    0.838
    72   1 H    0.890 --    71 O    0.838
    73   1 H    0.905 --    71 O    0.882
    74   8 O    1.842 --    75 H    0.857    76 H    0.849
    75   1 H    0.904 --    74 O    0.857
    76   1 H    0.897 --    74 O    0.849
    77   8 O    1.872 --    79 H    0.917    78 H    0.807
    78   1 H    0.882 --    77 O    0.807
    79   1 H    0.921 --    77 O    0.917
    80   8 O    1.851 --    82 H    0.899    81 H    0.854
    81   1 H    0.895 --    80 O    0.854
    82   1 H    0.907 --    80 O    0.899
    83   8 O    1.849 --    85 H    0.920    84 H    0.816
    84   1 H    0.889 --    83 O    0.816
    85   1 H    0.925 --    83 O    0.920
    86   8 O    1.870 --    88 H    0.912    87 H    0.782
    87   1 H    0.879 --    86 O    0.782
    88   1 H    0.917 --    86 O    0.912
    89   8 O    1.838 --    91 H    0.879    90 H    0.871
    90   1 H    0.906 --    89 O    0.871
    91   1 H    0.903 --    89 O    0.879
 ---------------------------------------------------------------------------

molecular dipole:
                 x           y           z       tot (Debye)
 q only:       -1.785       0.165       0.024
   full:       -2.444      -0.088      -0.046       6.217

 projected vibrational frequencies (cm⁻¹)
eigval :       -0.00    -0.00    -0.00     0.00     0.00     0.00
eigval :       29.10    33.41    35.70    36.98    39.24    40.18
eigval :       43.19    44.97    46.61    48.63    50.57    51.92
eigval :       54.75    57.57    59.34    60.91    61.91    63.29
eigval :       65.59    66.65    69.92    70.58    72.03    73.26
eigval :       75.91    81.93    83.33    85.89    88.39    90.85
eigval :       92.50    97.14   100.71   104.37   108.99   112.63
eigval :      116.21   121.95   125.21   133.23   140.99   147.26
eigval :      152.33   156.40   160.82   164.28   172.34   172.41
eigval :      174.64   177.76   182.89   184.98   188.64   191.68
eigval :      196.61   199.43   211.60   213.88   215.07   222.38
eigval :      224.44   228.66   236.08   236.96   242.19   243.69
eigval :      248.62   255.98   262.03   267.19   270.09   273.52
eigval :      278.38   285.82   291.27   296.36   302.23   310.34
eigval :      317.00   319.99   322.05   326.49   329.76   338.55
eigval :      340.21   342.33   351.90   356.53   368.93   374.23
eigval :      382.94   394.42   409.35   415.97   417.96   423.97
eigval :      426.75   432.92   435.98   437.90   446.21   447.92
eigval :      453.72   461.19   469.39   470.95   481.63   482.56
eigval :      487.77   493.13   496.40   499.33   502.25   516.36
eigval :      521.15   525.65   536.45   540.11   544.03   548.41
eigval :      553.19   564.01   566.21   574.46   576.83   585.43
eigval :      588.45   590.09   597.21   599.93   606.08   622.35
eigval :      630.74   640.12   646.18   659.39   662.54   668.31
eigval :      679.04   684.31   695.92   699.47   710.33   719.81
eigval :      733.60   741.45   752.49   772.98   782.75   785.57
eigval :      797.89   821.98   831.07   834.50   843.43   847.18
eigval :      855.36   861.23   875.35   889.01   923.80   947.06
eigval :      957.80   977.50  1006.57  1015.24  1080.43  1098.09
eigval :     1141.20  1168.49  1228.77  1251.62  1277.42  1309.59
eigval :     1339.24  1392.56  1398.32  1424.47  1448.50  1469.99
eigval :     1479.49  1484.16  1508.80  1514.71  1519.53  1520.53
eigval :     1521.05  1525.58  1530.10  1532.42  1533.94  1535.57
eigval :     1537.48  1541.33  1541.77  1544.32  1547.74  1548.92
eigval :     1553.98  1557.08  1558.27  1560.67  1564.81  1568.02
eigval :     1568.98  1571.88  1580.92  2860.67  2860.81  2867.82
eigval :     2954.69  2965.85  2970.89  2977.11  3000.37  3034.89
eigval :     3045.44  3049.33  3055.21  3057.97  3077.05  3083.03
eigval :     3138.64  3152.68  3212.80  3215.47  3246.50  3250.02
eigval :     3274.18  3299.79  3301.83  3306.52  3315.61  3331.78
eigval :     3336.59  3340.03  3352.92  3377.32  3383.43  3389.80
eigval :     3409.56  3420.58  3421.07  3423.61  3429.01  3435.31
eigval :     3436.98  3443.21  3457.04  3458.48  3469.64  3482.73
eigval :     3522.50  3525.86  3555.88  3559.02  3573.79  3627.56
eigval :     3662.36  3663.56  3667.75  3670.07  3675.61  3676.25
eigval :     3677.03  3682.33  3685.44

   temp. (K)  partition function   enthalpy   heat capacity  entropy
                                   cal/mol     cal/K/mol   cal/K/mol   J/K/mol
 298.15  VIB  0.150E+34            43350.464    233.379    280.983
         ROT  0.364E+08              888.752      2.981     37.577
         INT  0.546E+41            44239.216    236.360    318.560
         TR   0.121E+29             1481.254      4.968     44.716
         TOT                       45720.4703   241.3281   363.2767  1519.9498

       T/K    H(0)-H(T)+PV         H(T)/Eh          T*S/Eh         G(T)/Eh
   ------------------------------------------------------------------------
    298.15    0.728602E-01    0.808300E+00    0.172604E+00    0.635696E+00
   ------------------------------------------------------------------------

         :::::::::::::::::::::::::::::::::::::::::::::::::::::
         ::                  THERMODYNAMIC                  ::
         :::::::::::::::::::::::::::::::::::::::::::::::::::::
         :: total free energy        -147.104785911480 Eh   ::
         ::.................................................::
         :: total energy             -147.740481507956 Eh   ::
         :: zero point energy           0.735439884043 Eh   ::
         :: G(RRHO) w/o ZPVE           -0.099744287566 Eh   ::
         :: G(RRHO) contrib.            0.635695596476 Eh   ::
         :::::::::::::::::::::::::::::::::::::::::::::::::::::

           -------------------------------------------------
          | TOTAL ENERGY             -147.740481507956 Eh   |
          | TOTAL ENTHALPY           -146.932181416769 Eh   |
          | TOTAL FREE ENERGY        -147.104785911480 Eh   |
          | GRADIENT NORM               0.000273618788 Eh/α |
          | HOMO-LUMO GAP               6.141456396669 eV   |
           -------------------------------------------------

 * finished run on 2022/10/12 at 03:16:08.876
