   * xtb version 6.5.1 (579679a) compiled by 'ehlert@majestix' on 2022-07-11
          program call               : xtb cluster.xyz --gfn2 --ohess

   ID    Z sym.   atoms
    1    6 C      1-4
    2    1 H      5-12, 15, 16, 18, 19, 21, 22, 24, 25, 27, 28, 30, 31, 33,
                  34, 36, 37, 39, 40, 42, 43, 45, 46, 48, 49, 51, 52, 54, 55,
                  57, 58, 60, 61, 63, 64, 66, 67, 69, 70, 72, 73, 75, 76, 78,
                  79, 81, 82, 84, 85, 87, 88, 90, 91
    3    8 O      13, 17, 20, 23, 26, 29, 32, 35, 38, 41, 44, 47, 50, 53, 56,
                  59, 62, 65, 68, 71, 74, 77, 80, 83, 86, 89
    4    7 N      14

          :  Hamiltonian                  GFN2-xTB          :
 * total energy  :  -147.7408840 Eh     change       -0.1070077E-09 Eh
   *** GEOMETRY OPTIMIZATION CONVERGED AFTER 1 ITERATIONS ***

 final structure:
================
91
 xtb: 6.5.1 (579679a)
C            1.43189739240000       -0.16210141830000       -0.19927013670000
C           -0.50473898020000       -0.77568203380000        1.11884438260000
C           -1.69319353480000        0.05323169660000        0.65537197170000
C            1.00030462670000        1.22147198530000       -0.43979597180000
H            1.91650735450000       -0.58990540900000       -1.08287079800000
H           -0.85291146400000       -1.73108621990000        1.50729216310000
H           -2.20693362620000       -0.45597667370000       -0.15338484310000
H            0.30942385590000        1.45594647500000       -1.22405322230000
H            2.12338476270000       -0.19227869420000        0.64749915330000
H            0.04815008300000       -0.26220442800000        1.90765801690000
H           -2.38409263920000        0.18524907710000        1.47649391880000
H           -1.36396102560000        1.02487280030000        0.30762952930000
O            0.37633829580000       -1.10782976020000        0.05674945390000
N            1.26917828780000        2.22352018750000        0.49919477410000
H            1.27974654830000        3.14862108530000        0.08790691670000
H            2.11965940420000        2.04406343170000        1.02263336870000
O            1.53009942960000       -3.53611260460000       -1.75586132110000
H            0.56023590140000       -3.45867730790000       -1.71532181870000
H            1.84131432500000       -3.39141876900000       -0.84052160310000
O           -3.92908000350000        2.53460643940000        1.56121512250000
H           -3.47136611950000        2.12204632680000        2.31390414850000
H           -3.24978571540000        2.97690344040000        1.04012729270000
O           -1.09817172130000       -2.75682151790000       -1.44906486110000
H           -0.58245369680000       -2.15545604380000       -0.87284846190000
H           -1.50197099210000       -2.16078814160000       -2.09692402540000
O           -1.89936774960000       -0.54529712650000       -2.94450336240000
H           -2.41194535860000       -0.58618498950000       -3.75289354140000
H           -2.25032480930000        0.22851050650000       -2.44438918990000
O           -2.82854193350000        1.74369853300000       -1.92446962620000
H           -2.51273560900000        2.21698545810000       -1.14250360550000
H           -2.40284713000000        2.20673492730000       -2.67961495190000
O            2.37675598750000       -1.69829882640000       -3.35756367020000
H            2.03838877200000       -2.40028428450000       -2.71528586210000
H            2.48614636710000       -2.14992099090000       -4.19542782570000
O           -1.35861319300000       -3.33925641910000        3.04564181380000
H           -1.77470739930000       -3.54437228190000        2.16762528580000
H           -1.49573024580000       -4.11280438540000        3.59354043630000
O            3.95641734900000        0.94118054830000        1.70776723660000
H            3.30724166180000        0.67190694310000        2.42659785930000
H            4.72030175150000        1.28259200890000        2.17474501900000
O            0.09014580480000        1.95962878090000        3.09967365630000
H            0.21819162740000        1.98198658550000        2.13870616190000
H           -0.82931282990000        1.69101513590000        3.26822923650000
O           -1.55793198300000        3.40586090560000        0.07806723440000
H           -1.06606209250000        3.47134182700000        0.90060359030000
H           -0.96947192650000        3.75845651130000       -0.61009317880000
O           -4.51430819490000       -1.64910099260000        1.08315518590000
H           -4.58648822840000       -0.79658522180000        0.58044829590000
H           -5.41284574830000       -1.96204955570000        1.19174360060000
O            4.56939695750000       -1.49843702080000        0.51178697160000
H            4.63953168410000       -1.27599466690000       -0.42943945850000
H            4.38572271330000       -0.66111260460000        0.97383376910000
O           -2.58972119710000       -3.64684410540000        0.71992927270000
H           -3.28255086430000       -2.96727378330000        0.76681161830000
H           -2.07817164920000       -3.45268135450000       -0.08616092740000
O            2.56798498590000       -3.21367373700000        0.77990559730000
H            3.30789066560000       -2.56034207900000        0.69361160160000
H            2.97618430210000       -4.03546597350000        1.05627749970000
O            0.33773720950000        4.23587064320000       -1.81273819270000
H            1.08599250980000        3.66879908630000       -2.16740315620000
H            0.53207659430000        5.13272922120000       -2.08560882790000
O           -3.18592535540000       -1.27803643980000        3.49114873190000
H           -3.69379913700000       -1.40554033080000        2.66869469470000
H           -2.46460098610000       -1.92955169180000        3.45254802170000
O            4.04247568880000        1.73466962300000       -1.06674857130000
H            4.30076942460000        0.90399644640000       -1.49526529190000
H            3.99051749980000        1.53426950340000       -0.12306504070000
O            1.35759538270000       -2.28368859550000        3.14121469600000
H            0.44551450360000       -2.59889572670000        3.19210659150000
H            1.69465039030000       -2.57926586720000        2.27858237550000
O            2.17128379060000        2.69976956090000       -2.82388218080000
H            2.85445302520000        2.40873991090000       -2.19008926830000
H            1.70654861340000        1.89597873100000       -3.11066122000000
O            2.24956299870000        0.28204198170000        3.54571949150000
H            1.46880007450000        0.86638167240000        3.54264650680000
H            1.92512021990000       -0.63856769690000        3.48670160730000
O           -1.15227410370000        2.80433631530000       -3.71886808450000
H           -0.51609961430000        2.11120960420000       -3.93509272700000
H           -0.68455849610000        3.41115824580000       -3.12185165580000
O           -2.55001554940000        1.27819531610000        3.64268414600000
H           -2.78997595690000        1.58140315360000        4.51912589980000
H           -2.76346298720000        0.30788291900000        3.62204071580000
O           -4.83355962960000        0.65420165840000       -0.17234601600000
H           -4.30237105050000        0.91797825550000       -0.93369589870000
H           -4.65922070760000        1.34331393820000        0.50229037510000
O            0.61487464260000        0.46739867770000       -3.58289999810000
H           -0.22001986840000        0.06113942870000       -3.28745257540000
H            1.26826187120000       -0.24825844900000       -3.53715114580000
O            4.59111381690000       -0.75515704820000       -2.17971303040000
H            5.31596643260000       -0.89688270080000       -2.78905298930000
H            3.77355918540000       -1.08159836540000       -2.62024948010000

          :  Hamiltonian                  GFN2-xTB          :
         :: gradient norm              0.000215230122 Eh/a0 ::
         :: HOMO-LUMO gap              6.170456623540 eV    ::
         :: SCC energy              -148.745422590040 Eh    ::
         :: -> dispersion             -0.072585322537 Eh    ::
         :: repulsion energy           0.997985645077 Eh    ::

    * Orbital Energies and Occupations

         #    Occupation            Energy/Eh            Energy/eV
      -------------------------------------------------------------
         1        2.0000           -0.6937772             -18.8786
       ...           ...                  ...                  ...
       107        2.0000           -0.4297954             -11.6953
       108        2.0000           -0.4295067             -11.6875
       109        2.0000           -0.4291769             -11.6785
       110        2.0000           -0.4266263             -11.6091
       111        2.0000           -0.4253836             -11.5753
       112        2.0000           -0.4237602             -11.5311
       113        2.0000           -0.4229185             -11.5082
       114        2.0000           -0.4215139             -11.4700
       115        2.0000           -0.4201668             -11.4333
       116        2.0000           -0.4143648             -11.2754
       117        2.0000           -0.4109949             -11.1837
       118        2.0000           -0.3863170             -10.5122
       119        1.0000           -0.2672223              -7.2715 (HOMO)
       120                         -0.0404622              -1.1010 (LUMO)
       121                         -0.0178357              -0.4853
       122                         -0.0073549              -0.2001
       123                         -0.0063204              -0.1720
       124                          0.0167140               0.4548
       125                          0.0323210               0.8795
       126                          0.0358723               0.9761
       127                          0.0471664               1.2835
       128                          0.0523964               1.4258
       129                          0.0590002               1.6055
       130                          0.0744364               2.0255
       ...                                ...                  ...
       184                          0.4016974              10.9307
      -------------------------------------------------------------
                  HL-Gap            0.2267601 Eh            6.1705 eV

     #   Z          covCN         q      C6AA      α(0)
     1   6 C        3.687     0.045    20.003     6.402
     2   6 C        3.686     0.046    19.991     6.401
     3   6 C        3.751    -0.167    23.800     6.957
     4   6 C        2.814    -0.073    29.808     8.945
     5   1 H        0.924     0.070     2.083     2.257
     6   1 H        0.925     0.070     2.088     2.260
     7   1 H        0.925     0.062     2.171     2.304
     8   1 H        0.926     0.054     2.268     2.355
     9   1 H        0.924     0.058     2.222     2.331
    10   1 H        0.924     0.049     2.329     2.387
    11   1 H        0.926     0.071     2.076     2.253
    12   1 H        0.925     0.063     2.166     2.302
    13   8 O        1.696    -0.359    20.052     6.046
    14   7 N        2.631    -0.296    27.634     7.807
    15   1 H        0.860     0.176     1.238     1.743
    16   1 H        0.860     0.189     1.162     1.689
    17   8 O        1.611    -0.634    26.013     6.884
    18   1 H        0.804     0.324     0.653     1.270
    19   1 H        0.803     0.328     0.642     1.259
    20   8 O        1.609    -0.623    25.755     6.849
    21   1 H        0.804     0.317     0.673     1.289
    22   1 H        0.805     0.307     0.700     1.315
    23   8 O        1.607    -0.649    26.381     6.932
    24   1 H        0.803     0.337     0.619     1.236
    25   1 H        0.804     0.313     0.683     1.298
    26   8 O        1.607    -0.622    25.723     6.845
    27   1 H        0.806     0.285     0.767     1.375
    28   1 H        0.802     0.341     0.610     1.227
    29   8 O        1.607    -0.648    26.355     6.929
    30   1 H        0.805     0.320     0.663     1.279
    31   1 H        0.802     0.328     0.643     1.260
    32   8 O        1.602    -0.640    26.166     6.904
    33   1 H        0.801     0.350     0.590     1.207
    34   1 H        0.806     0.282     0.777     1.384
    35   8 O        1.606    -0.629    25.904     6.869
    36   1 H        0.801     0.339     0.616     1.233
    37   1 H        0.806     0.280     0.786     1.392
    38   8 O        1.603    -0.645    26.295     6.921
    39   1 H        0.801     0.346     0.599     1.216
    40   1 H        0.806     0.280     0.786     1.392
    41   8 O        1.608    -0.639    26.150     6.902
    42   1 H        0.804     0.300     0.721     1.334
    43   1 H        0.804     0.316     0.674     1.290
    44   8 O        1.609    -0.623    25.753     6.849
    45   1 H        0.805     0.298     0.728     1.340
    46   1 H        0.804     0.327     0.646     1.263
    47   8 O        1.606    -0.627    25.846     6.861
    48   1 H        0.801     0.344     0.603     1.220
    49   1 H        0.806     0.282     0.778     1.386
    50   8 O        1.608    -0.632    25.976     6.879
    51   1 H        0.804     0.315     0.678     1.294
    52   1 H        0.804     0.317     0.672     1.288
    53   8 O        1.608    -0.636    26.054     6.889
    54   1 H        0.804     0.317     0.672     1.287
    55   1 H        0.804     0.321     0.662     1.278
    56   8 O        1.607    -0.619    25.640     6.834
    57   1 H        0.801     0.340     0.614     1.231
    58   1 H        0.806     0.284     0.770     1.378
    59   8 O        1.604    -0.645    26.302     6.922
    60   1 H        0.801     0.346     0.599     1.216
    61   1 H        0.806     0.279     0.788     1.394
    62   8 O        1.608    -0.638    26.126     6.899
    63   1 H        0.804     0.321     0.662     1.278
    64   1 H        0.804     0.317     0.672     1.288
    65   8 O        1.609    -0.634    26.018     6.884
    66   1 H        0.804     0.312     0.685     1.300
    67   1 H        0.805     0.310     0.691     1.306
    68   8 O        1.609    -0.633    25.992     6.881
    69   1 H        0.805     0.307     0.701     1.315
    70   1 H        0.804     0.315     0.679     1.294
    71   8 O        1.610    -0.633    25.996     6.881
    72   1 H        0.803     0.327     0.644     1.261
    73   1 H        0.804     0.323     0.655     1.271
    74   8 O        1.610    -0.637    26.093     6.894
    75   1 H        0.804     0.320     0.665     1.281
    76   1 H        0.803     0.329     0.641     1.258
    77   8 O        1.609    -0.624    25.758     6.850
    78   1 H        0.805     0.317     0.672     1.288
    79   1 H        0.804     0.314     0.679     1.295
    80   8 O        1.606    -0.627    25.833     6.860
    81   1 H        0.806     0.284     0.770     1.378
    82   1 H        0.801     0.341     0.609     1.226
    83   8 O        1.608    -0.632    25.972     6.878
    84   1 H        0.805     0.310     0.690     1.305
    85   1 H        0.803     0.327     0.646     1.263
    86   8 O        1.608    -0.655    26.535     6.952
    87   1 H        0.804     0.319     0.667     1.283
    88   1 H        0.804     0.310     0.691     1.306
    89   8 O        1.608    -0.619    25.653     6.836
    90   1 H        0.806     0.286     0.766     1.374
    91   1 H        0.802     0.336     0.623     1.240

Wiberg/Mayer (AO) data.
largest (>0.10) Wiberg bond orders for each atom

     #   Z sym  total        # sym  WBO       # sym  WBO       # sym  WBO
 ---------------------------------------------------------------------------
     1   6 C    3.940 --     4 C    1.062     9 H    0.954     5 H    0.940
                            13 O    0.921
     2   6 C    3.940 --     3 C    1.012    13 O    0.967    10 H    0.961
                             6 H    0.955
     3   6 C    3.985 --     2 C    1.012     7 H    0.978    11 H    0.969
                            12 H    0.968
     4   6 C    3.217 --    14 N    1.145     1 C    1.062     8 H    0.961
     5   1 H    0.969 --     1 C    0.940
     6   1 H    0.993 --     2 C    0.955
     7   1 H    0.996 --     3 C    0.978
     8   1 H    0.997 --     4 C    0.961
     9   1 H    0.997 --     1 C    0.954
    10   1 H    0.997 --     2 C    0.961
    11   1 H    0.994 --     3 C    0.969
    12   1 H    0.996 --     3 C    0.968
    13   8 O    2.052 --     2 C    0.967     1 C    0.921
    14   7 N    3.108 --     4 C    1.145    15 H    0.938    16 H    0.927
    15   1 H    0.959 --    14 N    0.938
    16   1 H    0.956 --    14 N    0.927
    17   8 O    1.903 --    18 H    0.850    19 H    0.840    33 H    0.115
    18   1 H    0.895 --    17 O    0.850
    19   1 H    0.892 --    17 O    0.840
    20   8 O    1.859 --    22 H    0.887    21 H    0.855
    21   1 H    0.900 --    20 O    0.855
    22   1 H    0.906 --    20 O    0.887
    23   8 O    1.864 --    25 H    0.865    24 H    0.825
    24   1 H    0.886 --    23 O    0.825
    25   1 H    0.902 --    23 O    0.865
    26   8 O    1.870 --    27 H    0.915    28 H    0.811
    27   1 H    0.919 --    26 O    0.915
    28   1 H    0.884 --    26 O    0.811
    29   8 O    1.860 --    30 H    0.866    31 H    0.824
    30   1 H    0.898 --    29 O    0.866
    31   1 H    0.892 --    29 O    0.824
    32   8 O    1.878 --    34 H    0.915    33 H    0.758
    33   1 H    0.878 --    32 O    0.758    17 O    0.115
    34   1 H    0.920 --    32 O    0.915
    35   8 O    1.855 --    37 H    0.916    36 H    0.800
    36   1 H    0.885 --    35 O    0.800
    37   1 H    0.922 --    35 O    0.916
    38   8 O    1.850 --    40 H    0.917    39 H    0.767
    39   1 H    0.880 --    38 O    0.767    74 O    0.104
    40   1 H    0.921 --    38 O    0.917
    41   8 O    1.836 --    42 H    0.868    43 H    0.853
    42   1 H    0.909 --    41 O    0.868
    43   1 H    0.900 --    41 O    0.853
    44   8 O    1.833 --    45 H    0.900    46 H    0.852
    45   1 H    0.911 --    44 O    0.900
    46   1 H    0.893 --    44 O    0.852
    47   8 O    1.867 --    49 H    0.917    48 H    0.795
    48   1 H    0.882 --    47 O    0.795
    49   1 H    0.921 --    47 O    0.917
    50   8 O    1.875 --    51 H    0.862    52 H    0.850
    51   1 H    0.901 --    50 O    0.862
    52   1 H    0.899 --    50 O    0.850
    53   8 O    1.872 --    54 H    0.861    55 H    0.850
    54   1 H    0.899 --    53 O    0.861
    55   1 H    0.897 --    53 O    0.850
    56   8 O    1.887 --    58 H    0.917    57 H    0.802
    57   1 H    0.885 --    56 O    0.802
    58   1 H    0.919 --    56 O    0.917
    59   8 O    1.846 --    61 H    0.917    60 H    0.770
    60   1 H    0.881 --    59 O    0.770    71 O    0.103
    61   1 H    0.922 --    59 O    0.917
    62   8 O    1.872 --    64 H    0.854    63 H    0.848
    63   1 H    0.897 --    62 O    0.848
    64   1 H    0.900 --    62 O    0.854
    65   8 O    1.838 --    67 H    0.870    66 H    0.862
    66   1 H    0.902 --    65 O    0.862
    67   1 H    0.904 --    65 O    0.870
    68   8 O    1.840 --    69 H    0.876    70 H    0.859
    69   1 H    0.906 --    68 O    0.876
    70   1 H    0.901 --    68 O    0.859
    71   8 O    1.892 --    73 H    0.857    72 H    0.841    60 H    0.103
    72   1 H    0.893 --    71 O    0.841
    73   1 H    0.895 --    71 O    0.857
    74   8 O    1.889 --    75 H    0.849    76 H    0.840    39 H    0.104
    75   1 H    0.898 --    74 O    0.849
    76   1 H    0.892 --    74 O    0.840
    77   8 O    1.866 --    78 H    0.881    79 H    0.860
    78   1 H    0.900 --    77 O    0.881
    79   1 H    0.901 --    77 O    0.860
    80   8 O    1.874 --    81 H    0.915    82 H    0.794
    81   1 H    0.919 --    80 O    0.915
    82   1 H    0.883 --    80 O    0.794
    83   8 O    1.870 --    84 H    0.878    85 H    0.836
    84   1 H    0.904 --    83 O    0.878
    85   1 H    0.893 --    83 O    0.836
    86   8 O    1.819 --    88 H    0.859    87 H    0.847
    87   1 H    0.898 --    86 O    0.847
    88   1 H    0.904 --    86 O    0.859
    89   8 O    1.868 --    90 H    0.912    91 H    0.815
    90   1 H    0.918 --    89 O    0.912
    91   1 H    0.887 --    89 O    0.815
 ---------------------------------------------------------------------------

molecular dipole:
                 x           y           z       tot (Debye)
 q only:        0.657      -0.108      -0.727
   full:        1.162      -0.237      -1.092       4.097

 projected vibrational frequencies (cm⁻¹)
eigval :       -0.00    -0.00    -0.00     0.00     0.00     0.00
eigval :       27.99    32.98    36.16    41.05    43.61    47.32
eigval :       48.46    50.98    53.42    55.40    57.38    59.94
eigval :       62.13    63.71    66.52    69.14    69.42    72.14
eigval :       72.96    74.20    74.95    79.65    81.25    84.78
eigval :       85.46    88.38    90.11    92.26    96.09    99.81
eigval :      103.57   105.13   106.04   110.19   114.11   120.30
eigval :      123.53   126.00   130.72   136.33   140.13   149.50
eigval :      151.31   153.87   157.18   160.37   165.58   167.24
eigval :      176.10   182.46   186.42   191.07   192.43   193.72
eigval :      197.28   199.11   205.47   210.27   213.50   217.30
eigval :      222.77   228.38   234.00   237.08   242.49   244.83
eigval :      248.29   252.68   258.03   263.39   268.36   275.53
eigval :      284.26   288.66   292.07   295.64   304.23   307.41
eigval :      317.85   322.72   324.13   333.57   334.88   344.47
eigval :      353.14   354.97   357.83   371.79   383.35   386.81
eigval :      398.28   406.77   412.39   415.50   422.95   436.31
eigval :      443.07   445.87   450.67   451.46   463.41   470.77
eigval :      475.24   481.17   483.01   491.21   493.10   499.15
eigval :      506.27   509.22   513.60   518.36   524.74   530.66
eigval :      535.79   540.38   541.18   546.35   552.65   557.59
eigval :      562.16   565.91   574.85   578.15   590.20   598.70
eigval :      600.42   606.55   611.89   613.15   618.40   621.32
eigval :      626.15   628.97   632.19   645.20   654.61   660.91
eigval :      682.39   692.72   694.93   700.44   705.34   721.89
eigval :      730.08   738.27   750.87   766.88   774.96   785.63
eigval :      825.96   836.15   847.84   853.12   855.98   863.61
eigval :      886.12   895.73   902.48   922.37   935.95   950.21
eigval :      960.60   970.67   983.61  1001.25  1087.78  1095.48
eigval :     1132.85  1164.05  1226.31  1242.79  1270.90  1307.57
eigval :     1327.20  1388.09  1396.34  1431.86  1458.77  1472.79
eigval :     1481.67  1485.19  1511.83  1515.36  1516.16  1518.90
eigval :     1520.78  1523.73  1526.78  1526.97  1531.14  1532.13
eigval :     1533.71  1534.31  1536.09  1540.23  1544.50  1546.16
eigval :     1550.13  1551.90  1555.26  1556.29  1566.20  1568.56
eigval :     1572.04  1574.96  1580.39  2714.11  2793.27  2822.02
eigval :     2921.85  2954.49  2968.20  2976.95  3002.31  3014.59
eigval :     3034.91  3036.73  3069.45  3092.40  3106.61  3118.63
eigval :     3160.27  3168.77  3210.32  3245.19  3253.40  3262.70
eigval :     3281.53  3305.13  3320.36  3340.07  3341.20  3342.76
eigval :     3347.37  3357.93  3366.23  3384.75  3393.37  3396.81
eigval :     3398.48  3402.43  3410.61  3414.21  3421.56  3427.64
eigval :     3430.61  3432.51  3450.50  3463.29  3488.10  3506.92
eigval :     3507.99  3517.79  3544.83  3548.61  3570.82  3624.72
eigval :     3666.97  3667.82  3670.12  3670.48  3671.69  3672.45
eigval :     3673.94  3676.88  3680.36

   temp. (K)  partition function   enthalpy   heat capacity  entropy
                                   cal/mol     cal/K/mol   cal/K/mol   J/K/mol
 298.15  VIB  0.554E+32            42725.697    234.025    275.826
         ROT  0.352E+08              888.752      2.981     37.512
         INT  0.195E+40            43614.450    237.006    313.338
         TR   0.121E+29             1481.254      4.968     44.716
         TOT                       45095.7036   241.9737   358.0542  1498.0989

       T/K    H(0)-H(T)+PV         H(T)/Eh          T*S/Eh         G(T)/Eh
   ------------------------------------------------------------------------
    298.15    0.718646E-01    0.809220E+00    0.170123E+00    0.639097E+00
   ------------------------------------------------------------------------

         :::::::::::::::::::::::::::::::::::::::::::::::::::::
         ::                  THERMODYNAMIC                  ::
         :::::::::::::::::::::::::::::::::::::::::::::::::::::
         :: total free energy        -147.101787182339 Eh   ::
         ::.................................................::
         :: total energy             -147.740883980479 Eh   ::
         :: zero point energy           0.737355338581 Eh   ::
         :: G(RRHO) w/o ZPVE           -0.098258540442 Eh   ::
         :: G(RRHO) contrib.            0.639096798139 Eh   ::
         :::::::::::::::::::::::::::::::::::::::::::::::::::::

           -------------------------------------------------
          | TOTAL ENERGY             -147.740883980479 Eh   |
          | TOTAL ENTHALPY           -146.931664063798 Eh   |
          | TOTAL FREE ENERGY        -147.101787182339 Eh   |
          | GRADIENT NORM               0.000215230813 Eh/α |
          | HOMO-LUMO GAP               6.170456561387 eV   |
           -------------------------------------------------

 * finished run on 2022/10/12 at 03:16:08.934
