   * xtb version 6.5.1 (579679a) compiled by 'ehlert@majestix' on 2022-07-11
          program call               : xtb cluster.xyz --gfn2 --ohess

   ID    Z sym.   atoms
    1    1 H      1, 3, 4, 6, 8, 9, 11-13, 15, 16, 18, 19, 21, 22, 24, 25,
                  27, 28, 30, 31, 33, 34, 36, 37, 39, 40, 42, 43, 45, 46, 48,
                  49, 51, 52, 54, 55, 57, 58, 60, 61, 63, 64, 66, 67, 69, 70,
                  72, 73, 75, 76, 78, 79, 81, 82, 84, 85, 87, 88, 90, 91
    2    6 C      2, 5, 7, 10
    3    7 N      14
    4    8 O      17, 20, 23, 26, 29, 32, 35, 38, 41, 44, 47, 50, 53, 56, 59,
                  62, 65, 68, 71, 74, 77, 80, 83, 86, 89

          :  Hamiltonian                  GFN2-xTB          :
 * total energy  :  -144.2620258 Eh     change       -0.6281198E-10 Eh
   *** GEOMETRY OPTIMIZATION CONVERGED AFTER 1 ITERATIONS ***

 final structure:
================
91
 xtb: 6.5.1 (579679a)
H            0.71345228930000        2.72862883570000       -2.98701973440000
C            0.65672155420000        3.01990881030000       -1.94015319560000
H            1.40846277760000        3.78474251490000       -1.76188823260000
H           -0.32330204710000        3.45328461160000       -1.74911880500000
C            0.90752181220000        1.80782921960000       -1.04608154380000
H            0.88236435330000        2.12844124040000       -0.00140060360000
C           -0.20660286350000        0.77120556940000       -1.24890087570000
H           -0.12072236700000        0.33389862570000       -2.24395902610000
H           -1.16664918400000        1.28887058670000       -1.17878484590000
C            2.28065759800000        1.21359085040000       -1.33395954570000
H            2.43508850790000        0.31740720920000       -0.74186130700000
H            3.06185223830000        1.92566389120000       -1.08046772810000
H            2.36994472650000        0.96404802380000       -2.38683868210000
N           -0.23727381580000       -0.32752787500000       -0.28601618200000
H            0.51528957900000       -0.98404640070000       -0.46944785070000
H           -0.12797889330000        0.03062691240000        0.65723047370000
O           -2.63589844040000        4.40195782660000        1.22515496550000
H           -3.27856348810000        5.10923081100000        1.27959152610000
H           -2.48247917880000        4.09044256060000        2.16450757740000
O           -3.53694304180000        0.76981917230000       -1.96643499910000
H           -3.20260350090000       -0.09368551980000       -1.57790024820000
H           -4.43990224420000        0.60140153400000       -2.23876462880000
O           -2.16675467580000       -3.86971163300000       -1.43826783370000
H           -2.49765482990000       -2.97335528440000       -1.22297886050000
H           -1.69981100770000       -4.15995511640000       -0.63589817480000
O           -1.30389332320000        1.17414548210000        2.37205802330000
H           -1.59755224910000        0.36103314380000        2.82244532250000
H           -1.94405505160000        1.32486069930000        1.64673720630000
O           -2.66748923790000       -1.33803362400000       -0.72740566180000
H           -1.73960360820000       -1.03299204390000       -0.51125994520000
H           -3.20152686970000       -1.24372671810000        0.09433210450000
O           -0.32674765240000       -3.22751134060000       -3.16169128870000
H           -1.07904100390000       -3.47194669990000       -2.54860230950000
H           -0.13946621840000       -4.00964134650000       -3.68122061500000
O            1.54895655270000       -2.60435609590000       -1.33477120990000
H            0.86423473940000       -2.73738773770000       -2.02111698080000
H            2.36494083790000       -2.31328463180000       -1.81539786140000
O            3.12375645530000       -2.77289304650000        0.90870526780000
H            2.47955631930000       -2.70231313610000        0.18494076500000
H            3.80614338370000       -2.11412543040000        0.67765771070000
O            3.78013477340000       -1.69051728250000       -2.39088022390000
H            3.44638670580000       -1.07903792870000       -3.07913943670000
H            4.13420478330000       -1.14616047740000       -1.67693137300000
O            2.63541893720000       -0.15814008880000       -4.32560277610000
H            2.99951345160000       -0.31823850720000       -5.19668613210000
H            1.68196880510000       -0.40324650690000       -4.39000844060000
O            0.38585479350000        4.76275461470000        3.74893449060000
H            0.29997862360000        5.00127469780000        2.79020642240000
H            0.67294188270000        5.55263747550000        4.20580808430000
O           -2.05552488440000        3.49137029590000        3.60921045820000
H           -1.22568550480000        3.94003040080000        3.84578806650000
H           -1.79787004840000        2.59330293630000        3.32080461840000
O           -3.24732082360000        1.79880537610000        0.58208558970000
H           -3.32809537120000        1.57999087890000       -0.36357608500000
H           -3.13105043360000        2.76122200510000        0.65240745740000
O            0.08395035530000       -0.87835579800000       -4.59752807740000
H           -0.65925939950000       -0.25678751930000       -4.51189349790000
H           -0.15723901750000       -1.67304772080000       -4.09619642730000
O            1.08280936160000        2.48460737560000        2.18866418600000
H            0.26826324510000        1.95812096440000        2.28466751340000
H            1.10160472010000        3.08445746540000        2.94385337680000
O            4.59419296900000       -0.58052371650000        0.24165995740000
H            5.51393027980000       -0.41530503060000        0.44860660220000
H            4.06806526720000       -0.02386304250000        0.86715703740000
O           -2.29247571360000       -1.08679704580000        3.49373343020000
H           -1.66929114100000       -1.83413857470000        3.27528535390000
H           -2.53595602970000       -1.19943673340000        4.41243892640000
O            0.06849076190000        4.98787645590000        1.12524459690000
H            0.51801620230000        4.14739991880000        0.96711576200000
H           -0.88043197540000        4.81629475510000        0.98878028410000
O           -0.76354274920000       -4.67089259380000        0.82743457560000
H           -1.11286490630000       -5.51620250730000        1.11193550150000
H            0.12808012520000       -4.85404877530000        0.43491566310000
O           -0.56607297930000       -2.96695241370000        2.98835482030000
H           -0.67472316970000       -3.49750699750000        2.17931631380000
H            0.27689035780000       -2.48526194160000        2.89883626490000
O            3.13879604830000        0.64725868230000        2.10359997490000
H            2.61206686830000       -0.09028417480000        2.45547213450000
H            2.51266981240000        1.38666437410000        2.01461808660000
O            1.86349675950000       -1.69120441470000        2.91621273880000
H            2.28834328840000       -1.97963594780000        3.72489084600000
H            2.33738586260000       -2.15534553060000        2.16977984280000
O            1.61479211220000       -5.07182267400000       -0.26008109270000
H            2.34455348860000       -4.95665377670000        0.35456135920000
H            1.60742510610000       -4.25047031480000       -0.80041428480000
O           -1.89395053660000        1.01823988540000       -4.16474209120000
H           -2.48000128110000        0.91073088070000       -3.39216755310000
H           -1.46512765300000        1.86876573700000       -4.05888551110000
O           -4.09067915560000       -0.72751420130000        1.44436712870000
H           -3.54224849850000       -0.92167908520000        2.22257707330000
H           -4.02786839470000        0.22769486810000        1.30399028100000

          :  Hamiltonian                  GFN2-xTB          :
         :: gradient norm              0.000299234606 Eh/a0 ::
         :: HOMO-LUMO gap              8.915754403619 eV    ::
         :: SCC energy              -145.257127489512 Eh    ::
         :: -> dispersion             -0.064050680004 Eh    ::
         :: repulsion energy           0.989591154261 Eh    ::

    * Orbital Energies and Occupations

         #    Occupation            Energy/Eh            Energy/eV
      -------------------------------------------------------------
         1        2.0000           -0.6838263             -18.6079
       ...           ...                  ...                  ...
       104        2.0000           -0.4280718             -11.6484
       105        2.0000           -0.4271727             -11.6240
       106        2.0000           -0.4249233             -11.5628
       107        2.0000           -0.4239051             -11.5350
       108        2.0000           -0.4235634             -11.5257
       109        2.0000           -0.4227855             -11.5046
       110        2.0000           -0.4202630             -11.4359
       111        2.0000           -0.4185147             -11.3884
       112        2.0000           -0.4151603             -11.2971
       113        2.0000           -0.4128828             -11.2351
       114        2.0000           -0.4110996             -11.1866
       115        2.0000           -0.4007962             -10.9062
       116        2.0000           -0.3635735              -9.8933 (HOMO)
       117                         -0.0359256              -0.9776 (LUMO)
       118                         -0.0176681              -0.4808
       119                          0.0046290               0.1260
       120                          0.0217757               0.5925
       121                          0.0332155               0.9038
       122                          0.0467316               1.2716
       123                          0.0510482               1.3891
       124                          0.0551968               1.5020
       125                          0.0677630               1.8439
       126                          0.0770769               2.0974
       127                          0.0831182               2.2618
       ...                                ...                  ...
       181                          0.3678265              10.0091
      -------------------------------------------------------------
                  HL-Gap            0.3276479 Eh            8.9158 eV

     #   Z          covCN         q      C6AA      α(0)
     1   1 H        0.925     0.035     2.515     2.480
     2   6 C        3.757    -0.121    22.863     6.817
     3   1 H        0.925     0.038     2.479     2.462
     4   1 H        0.925     0.029     2.601     2.522
     5   6 C        3.849    -0.034    21.140     6.540
     6   1 H        0.924     0.046     2.375     2.410
     7   6 C        3.736    -0.020    21.014     6.542
     8   1 H        0.924     0.060     2.203     2.321
     9   1 H        0.924     0.045     2.389     2.417
    10   6 C        3.756    -0.137    23.183     6.865
    11   1 H        0.925     0.054     2.268     2.355
    12   1 H        0.925     0.030     2.587     2.515
    13   1 H        0.925     0.063     2.163     2.300
    14   7 N        2.636    -0.373    29.625     8.084
    15   1 H        0.860     0.179     1.220     1.730
    16   1 H        0.860     0.164     1.307     1.791
    17   8 O        1.604    -0.633    26.003     6.882
    18   1 H        0.806     0.279     0.788     1.395
    19   1 H        0.800     0.344     0.604     1.221
    20   8 O        1.604    -0.638    26.124     6.898
    21   1 H        0.800     0.347     0.596     1.213
    22   1 H        0.806     0.283     0.774     1.382
    23   8 O        1.609    -0.639    26.144     6.901
    24   1 H        0.803     0.326     0.649     1.265
    25   1 H        0.804     0.315     0.679     1.294
    26   8 O        1.607    -0.660    26.666     6.969
    27   1 H        0.804     0.325     0.651     1.268
    28   1 H        0.803     0.334     0.626     1.243
    29   8 O        1.603    -0.660    26.684     6.972
    30   1 H        0.808     0.325     0.651     1.267
    31   1 H        0.802     0.329     0.641     1.258
    32   8 O        1.605    -0.633    26.001     6.882
    33   1 H        0.801     0.344     0.603     1.220
    34   1 H        0.806     0.283     0.775     1.382
    35   8 O        1.604    -0.679    27.165     7.034
    36   1 H        0.803     0.328     0.644     1.261
    37   1 H        0.802     0.330     0.637     1.254
    38   8 O        1.609    -0.643    26.251     6.915
    39   1 H        0.804     0.334     0.628     1.245
    40   1 H        0.803     0.326     0.649     1.265
    41   8 O        1.608    -0.624    25.777     6.852
    42   1 H        0.803     0.325     0.650     1.267
    43   1 H        0.805     0.308     0.697     1.312
    44   8 O        1.607    -0.617    25.602     6.829
    45   1 H        0.806     0.275     0.802     1.407
    46   1 H        0.802     0.337     0.621     1.238
    47   8 O        1.607    -0.630    25.917     6.871
    48   1 H        0.801     0.336     0.623     1.240
    49   1 H        0.806     0.276     0.798     1.403
    50   8 O        1.608    -0.635    26.032     6.886
    51   1 H        0.804     0.318     0.670     1.286
    52   1 H        0.803     0.323     0.657     1.273
    53   8 O        1.608    -0.646    26.321     6.924
    54   1 H        0.804     0.319     0.666     1.282
    55   1 H        0.804     0.317     0.673     1.289
    56   8 O        1.608    -0.638    26.122     6.898
    57   1 H        0.804     0.317     0.671     1.287
    58   1 H        0.804     0.315     0.678     1.293
    59   8 O        1.609    -0.634    26.011     6.883
    60   1 H        0.804     0.327     0.647     1.263
    61   1 H        0.805     0.310     0.693     1.307
    62   8 O        1.607    -0.623    25.750     6.849
    63   1 H        0.806     0.277     0.794     1.400
    64   1 H        0.802     0.341     0.610     1.227
    65   8 O        1.605    -0.631    25.939     6.874
    66   1 H        0.802     0.344     0.602     1.219
    67   1 H        0.806     0.283     0.773     1.381
    68   8 O        1.609    -0.619    25.655     6.836
    69   1 H        0.805     0.314     0.680     1.295
    70   1 H        0.804     0.321     0.662     1.278
    71   8 O        1.607    -0.621    25.699     6.842
    72   1 H        0.806     0.285     0.768     1.376
    73   1 H        0.801     0.339     0.614     1.231
    74   8 O        1.609    -0.641    26.183     6.906
    75   1 H        0.804     0.322     0.659     1.275
    76   1 H        0.804     0.319     0.667     1.283
    77   8 O        1.608    -0.642    26.213     6.910
    78   1 H        0.804     0.312     0.686     1.301
    79   1 H        0.804     0.319     0.667     1.283
    80   8 O        1.605    -0.630    25.917     6.871
    81   1 H        0.806     0.284     0.772     1.380
    82   1 H        0.801     0.341     0.611     1.228
    83   8 O        1.608    -0.621    25.688     6.840
    84   1 H        0.805     0.299     0.724     1.337
    85   1 H        0.802     0.333     0.629     1.246
    86   8 O        1.609    -0.612    25.478     6.812
    87   1 H        0.804     0.322     0.659     1.275
    88   1 H        0.806     0.283     0.776     1.383
    89   8 O        1.609    -0.627    25.854     6.863
    90   1 H        0.804     0.317     0.672     1.288
    91   1 H        0.805     0.315     0.676     1.292

Wiberg/Mayer (AO) data.
largest (>0.10) Wiberg bond orders for each atom

     #   Z sym  total        # sym  WBO       # sym  WBO       # sym  WBO
 ---------------------------------------------------------------------------
     1   1 H    0.999 --     2 C    0.986
     2   6 C    3.996 --     5 C    1.007     3 H    0.986     4 H    0.986
                             1 H    0.986
     3   1 H    0.999 --     2 C    0.986
     4   1 H    0.999 --     2 C    0.986
     5   6 C    3.995 --    10 C    1.010     2 C    1.007     7 C    0.986
                             6 H    0.957
     6   1 H    0.998 --     5 C    0.957
     7   6 C    3.979 --    14 N    1.018     5 C    0.986     8 H    0.968
                             9 H    0.966
     8   1 H    0.996 --     7 C    0.968
     9   1 H    0.998 --     7 C    0.966
    10   6 C    3.993 --     5 C    1.010    12 H    0.987    11 H    0.976
                            13 H    0.976
    11   1 H    0.997 --    10 C    0.976
    12   1 H    0.999 --    10 C    0.987
    13   1 H    0.996 --    10 C    0.976
    14   7 N    3.117 --     7 C    1.018    16 H    0.951    15 H    0.938
                            30 H    0.103
    15   1 H    0.968 --    14 N    0.938
    16   1 H    0.973 --    14 N    0.951
    17   8 O    1.869 --    18 H    0.917    19 H    0.781
    18   1 H    0.922 --    17 O    0.917
    19   1 H    0.882 --    17 O    0.781
    20   8 O    1.877 --    22 H    0.915    21 H    0.771
    21   1 H    0.880 --    20 O    0.771    29 O    0.105
    22   1 H    0.920 --    20 O    0.915
    23   8 O    1.891 --    25 H    0.856    24 H    0.833    33 H    0.103
    24   1 H    0.894 --    23 O    0.833
    25   1 H    0.901 --    23 O    0.856
    26   8 O    1.870 --    27 H    0.835    28 H    0.829
    27   1 H    0.894 --    26 O    0.835
    28   1 H    0.888 --    26 O    0.829
    29   8 O    1.928 --    31 H    0.819    30 H    0.788    21 H    0.105
    30   1 H    0.895 --    29 O    0.788    14 N    0.103
    31   1 H    0.892 --    29 O    0.819
    32   8 O    1.874 --    34 H    0.915    33 H    0.775
    33   1 H    0.882 --    32 O    0.775    23 O    0.103
    34   1 H    0.920 --    32 O    0.915
    35   8 O    1.860 --    36 H    0.821    37 H    0.803
    36   1 H    0.893 --    35 O    0.821
    37   1 H    0.891 --    35 O    0.803
    38   8 O    1.888 --    39 H    0.845    40 H    0.842
    39   1 H    0.889 --    38 O    0.845
    40   1 H    0.894 --    38 O    0.842
    41   8 O    1.886 --    43 H    0.886    42 H    0.836
    42   1 H    0.894 --    41 O    0.836
    43   1 H    0.905 --    41 O    0.886
    44   8 O    1.859 --    45 H    0.920    46 H    0.816
    45   1 H    0.925 --    44 O    0.920
    46   1 H    0.887 --    44 O    0.816
    47   8 O    1.845 --    49 H    0.916    48 H    0.805
    48   1 H    0.887 --    47 O    0.805
    49   1 H    0.924 --    47 O    0.916
    50   8 O    1.893 --    51 H    0.857    52 H    0.841
    51   1 H    0.899 --    50 O    0.857
    52   1 H    0.896 --    50 O    0.841
    53   8 O    1.854 --    55 H    0.849    54 H    0.844
    54   1 H    0.898 --    53 O    0.844
    55   1 H    0.900 --    53 O    0.849
    56   8 O    1.855 --    58 H    0.861    57 H    0.852
    57   1 H    0.899 --    56 O    0.852
    58   1 H    0.901 --    56 O    0.861
    59   8 O    1.859 --    61 H    0.879    60 H    0.844
    60   1 H    0.893 --    59 O    0.844
    61   1 H    0.904 --    59 O    0.879
    62   8 O    1.857 --    63 H    0.918    64 H    0.809
    63   1 H    0.923 --    62 O    0.918
    64   1 H    0.884 --    62 O    0.809
    65   8 O    1.873 --    67 H    0.912    66 H    0.783
    66   1 H    0.881 --    65 O    0.783
    67   1 H    0.920 --    65 O    0.912
    68   8 O    1.886 --    69 H    0.882    70 H    0.853
    69   1 H    0.901 --    68 O    0.882
    70   1 H    0.897 --    68 O    0.853
    71   8 O    1.884 --    72 H    0.916    73 H    0.800
    72   1 H    0.919 --    71 O    0.916
    73   1 H    0.885 --    71 O    0.800
    74   8 O    1.880 --    75 H    0.848    76 H    0.846
    75   1 H    0.896 --    74 O    0.848
    76   1 H    0.898 --    74 O    0.846
    77   8 O    1.853 --    78 H    0.859    79 H    0.850
    78   1 H    0.903 --    77 O    0.859
    79   1 H    0.898 --    77 O    0.850
    80   8 O    1.883 --    81 H    0.917    82 H    0.783
    81   1 H    0.920 --    80 O    0.917
    82   1 H    0.884 --    80 O    0.783
    83   8 O    1.884 --    84 H    0.903    85 H    0.822
    84   1 H    0.911 --    83 O    0.903
    85   1 H    0.889 --    83 O    0.822
    86   8 O    1.849 --    88 H    0.916    87 H    0.843
    87   1 H    0.896 --    86 O    0.843
    88   1 H    0.920 --    86 O    0.916
    89   8 O    1.872 --    91 H    0.873    90 H    0.855
    90   1 H    0.900 --    89 O    0.855
    91   1 H    0.900 --    89 O    0.873
 ---------------------------------------------------------------------------

molecular dipole:
                 x           y           z       tot (Debye)
 q only:        0.094       0.276       1.151
   full:        0.329       0.743       1.726       4.850

 projected vibrational frequencies (cm⁻¹)
eigval :       -0.00    -0.00    -0.00     0.00     0.00     0.00
eigval :       16.81    22.52    28.16    29.93    31.93    36.56
eigval :       37.60    39.05    41.49    43.98    46.25    46.71
eigval :       49.88    50.79    52.30    54.93    57.93    60.99
eigval :       62.65    65.36    67.82    68.42    70.87    71.84
eigval :       74.51    78.33    80.74    87.01    88.37    91.84
eigval :       93.48    94.11    99.59   102.43   106.53   109.36
eigval :      121.92   125.69   140.44   146.19   147.56   150.21
eigval :      156.84   159.78   165.66   175.73   179.86   188.50
eigval :      194.32   197.89   200.18   206.50   206.60   212.28
eigval :      219.84   222.54   227.52   232.24   235.40   238.15
eigval :      240.93   244.79   254.29   256.41   263.46   266.02
eigval :      270.75   276.73   278.89   281.72   287.91   300.49
eigval :      308.20   313.82   314.72   318.99   324.80   327.05
eigval :      328.90   335.37   337.95   344.44   346.83   352.06
eigval :      358.47   360.27   373.01   380.58   383.62   390.46
eigval :      396.90   398.50   420.09   427.91   430.44   436.79
eigval :      450.85   455.69   462.14   470.47   472.12   475.34
eigval :      481.72   485.39   489.01   491.54   495.31   500.12
eigval :      506.49   513.99   521.93   531.48   539.48   548.16
eigval :      559.87   564.26   571.59   576.71   582.62   586.58
eigval :      591.40   599.06   606.93   613.52   619.75   629.41
eigval :      640.33   642.13   653.85   654.56   669.35   679.60
eigval :      687.19   700.13   709.08   711.55   717.02   720.32
eigval :      727.48   741.37   755.80   765.39   778.30   787.76
eigval :      815.79   820.41   825.87   845.03   849.14   854.67
eigval :      856.50   868.16   890.50   897.82   907.11   920.89
eigval :      935.01   958.06   968.20   974.35   976.70   993.38
eigval :     1000.49  1030.65  1061.22  1108.63  1159.45  1192.41
eigval :     1213.29  1303.19  1305.14  1336.59  1353.98  1409.85
eigval :     1424.29  1471.21  1491.15  1495.63  1500.30  1505.00
eigval :     1507.99  1509.65  1509.97  1511.18  1519.37  1519.99
eigval :     1521.17  1522.80  1523.34  1525.53  1527.67  1530.46
eigval :     1531.57  1532.66  1535.40  1540.63  1543.62  1544.30
eigval :     1546.96  1548.85  1551.29  1553.90  1559.66  1568.55
eigval :     1574.13  1581.42  2724.57  2828.94  2850.86  2876.22
eigval :     2896.20  2926.27  2968.74  2982.47  3000.51  3006.60
eigval :     3019.79  3027.38  3032.94  3034.32  3038.83  3043.62
eigval :     3065.03  3075.97  3082.70  3126.09  3152.31  3184.57
eigval :     3222.60  3263.84  3274.12  3275.44  3279.07  3301.54
eigval :     3308.11  3321.42  3322.41  3342.59  3356.32  3368.39
eigval :     3376.30  3382.32  3385.74  3390.99  3400.84  3404.26
eigval :     3411.19  3412.31  3416.86  3426.46  3450.57  3453.49
eigval :     3503.69  3520.76  3542.69  3544.47  3621.72  3662.77
eigval :     3670.40  3672.57  3673.16  3676.37  3677.81  3681.46
eigval :     3681.70  3683.09  3689.44

   temp. (K)  partition function   enthalpy   heat capacity  entropy
                                   cal/mol     cal/K/mol   cal/K/mol   J/K/mol
 298.15  VIB  0.185E+34            41789.507    223.091    271.250
         ROT  0.382E+08              888.752      2.981     37.676
         INT  0.707E+41            42678.260    226.072    308.927
         TR   0.116E+29             1481.254      4.968     44.632
         TOT                       44159.5136   231.0401   353.5589  1479.2904

       T/K    H(0)-H(T)+PV         H(T)/Eh          T*S/Eh         G(T)/Eh
   ------------------------------------------------------------------------
    298.15    0.703727E-01    0.817238E+00    0.167987E+00    0.649251E+00
   ------------------------------------------------------------------------

         :::::::::::::::::::::::::::::::::::::::::::::::::::::
         ::                  THERMODYNAMIC                  ::
         :::::::::::::::::::::::::::::::::::::::::::::::::::::
         :: total free energy        -143.612775172304 Eh   ::
         ::.................................................::
         :: total energy             -144.262025799208 Eh   ::
         :: zero point energy           0.746865197036 Eh   ::
         :: G(RRHO) w/o ZPVE           -0.097614570132 Eh   ::
         :: G(RRHO) contrib.            0.649250626904 Eh   ::
         :::::::::::::::::::::::::::::::::::::::::::::::::::::

           -------------------------------------------------
          | TOTAL ENERGY             -144.262025799208 Eh   |
          | TOTAL ENTHALPY           -143.444787937790 Eh   |
          | TOTAL FREE ENERGY        -143.612775172304 Eh   |
          | GRADIENT NORM               0.000299238418 Eh/α |
          | HOMO-LUMO GAP               8.915754410903 eV   |
           -------------------------------------------------

 * finished run on 2022/10/12 at 01:33:02.200
