   * xtb version 6.5.1 (579679a) compiled by 'ehlert@majestix' on 2022-07-11
          program call               : xtb -c 0 -u 0 water.xyz --opt extreme

   ID    Z sym.   atoms
    1    8 O      1
    2    1 H      2, 3

          :  Hamiltonian                  GFN2-xTB          :
 * total energy  :    -5.0689800 Eh     change        0.0000000E+00 Eh
 * total energy  :    -5.0703649 Eh     change       -0.1384892E-02 Eh
 * total energy  :    -5.0705334 Eh     change       -0.1685691E-03 Eh
 * total energy  :    -5.0705430 Eh     change       -0.9594295E-05 Eh
 * total energy  :    -5.0705441 Eh     change       -0.1056998E-05 Eh
 * total energy  :    -5.0705444 Eh     change       -0.3535115E-06 Eh
 * total energy  :    -5.0705444 Eh     change       -0.5424994E-11 Eh
   *** GEOMETRY OPTIMIZATION CONVERGED AFTER 7 ITERATIONS ***

 final structure:
================
3
 xtb: 6.5.1 (579679a)
O           -8.00064844296966        4.69707991013351       -0.00379442788943
H           -7.60174976112640        4.53221351286053        0.85281976745013
H           -8.75065179590393        4.10485657700595       -0.08659213956070

          :  Hamiltonian                  GFN2-xTB          :
         :: total energy              -5.070544447046 Eh    ::
         :: gradient norm              0.000000919225 Eh/a0 ::
         :: HOMO-LUMO gap             14.389762596836 eV    ::
         :: SCC energy                -5.104912721524 Eh    ::
         :: -> dispersion             -0.000141084480 Eh    ::
         :: repulsion energy           0.034368274452 Eh    ::

    * Orbital Energies and Occupations

         #    Occupation            Energy/Eh            Energy/eV
      -------------------------------------------------------------
         1        2.0000           -0.6800834             -18.5060
         2        2.0000           -0.5683060             -15.4644
         3        2.0000           -0.5108703             -13.9015
         4        2.0000           -0.4463859             -12.1468 (HOMO)
         5                          0.0824281               2.2430 (LUMO)
         6                          0.2514896               6.8434
      -------------------------------------------------------------
                  HL-Gap            0.5288140 Eh           14.3898 eV

     #   Z          covCN         q      C6AA      α(0)
     1   8 O        1.611    -0.565    24.358     6.661
     2   1 H        0.805     0.282     0.776     1.384
     3   1 H        0.805     0.282     0.776     1.384

Wiberg/Mayer (AO) data.
largest (>0.10) Wiberg bond orders for each atom

     #   Z sym  total        # sym  WBO       # sym  WBO       # sym  WBO
 ---------------------------------------------------------------------------
     1   8 O    1.840 --     3 H    0.920     2 H    0.920
     2   1 H    0.920 --     1 O    0.920
     3   1 H    0.920 --     1 O    0.920
 ---------------------------------------------------------------------------

molecular dipole:
                 x           y           z       tot (Debye)
 q only:       -0.187      -0.404       0.413
   full:       -0.269      -0.580       0.593       2.217

           -------------------------------------------------
          | TOTAL ENERGY               -5.070544447046 Eh   |
          | GRADIENT NORM               0.000000919225 Eh/α |
          | HOMO-LUMO GAP              14.389762596836 eV   |
           -------------------------------------------------

 * finished run on 2022/09/27 at 18:19:55.415
